"098_102"
"/usr/local/vasp/vasp.5.4.4.pl2_CentOS7_oneAPI/bin/vasp"
* relax calc kpoints:50, xx:0.98, yy:1.02
 running on   32 total cores
 distrk:  each k-point on   32 cores,    1 groups
 distr:  one band on   16 cores,    2 groups
 using from now: INCAR     
 vasp.5.4.4.18Apr17-6-g9f103f2a35 (build Feb 12 2021 11:56:03) complex          
  
 POSCAR found :  1 types and     104 ions
 scaLAPACK is switched off

 ----------------------------------------------------------------------------- 
|                                                                             |
|           W    W    AA    RRRRR   N    N  II  N    N   GGGG   !!!           |
|           W    W   A  A   R    R  NN   N  II  NN   N  G    G  !!!           |
|           W    W  A    A  R    R  N N  N  II  N N  N  G       !!!           |
|           W WW W  AAAAAA  RRRRR   N  N N  II  N  N N  G  GGG   !            |
|           WW  WW  A    A  R   R   N   NN  II  N   NN  G    G                |
|           W    W  A    A  R    R  N    N  II  N    N   GGGG   !!!           |
|                                                                             |
|      For optimal performance we recommend to set                            |
|        NCORE= 4 - approx SQRT( number of cores)                             |
|      NCORE specifies how many cores store one orbital (NPAR=cpu/NCORE).     |
|      This setting can  greatly improve the performance of VASP for DFT.     |
|      The default,   NCORE=1            might be grossly inefficient         |
|      on modern multi-core architectures or massively parallel machines.     |
|      Do your own testing !!!!                                               |
|      Unfortunately you need to use the default for GW and RPA calculations. |
|      (for HF NCORE is supported but not extensively tested yet)             |
|                                                                             |
 ----------------------------------------------------------------------------- 

 LDA part: xc-table for Pade appr. of Perdew
 generate k-points for:    5    5    3
 found WAVECAR, reading the header
 WAVECAR: different cutoff or change in lattice found
 POSCAR, INCAR and KPOINTS ok, starting setup
 FFT: planning ...
 reading WAVECAR
 the WAVECAR file was read successfully
 WARNING: dimensions on CHGCAR file are different
 entering main loop
       N       E                     dE             d eps       ncg     rms          rms(c)
DAV:   1    -0.375135253048E+03   -0.37514E+03   -0.20622E+02  5060   0.258E+01    0.103E+01
DAV:   2    -0.373831687026E+03    0.13036E+01   -0.68481E+00  5808   0.478E+00    0.643E+00
DAV:   3    -0.372814111424E+03    0.10176E+01   -0.12684E+00  5680   0.162E+00    0.111E+00
DAV:   4    -0.372770558221E+03    0.43553E-01   -0.82670E-02  5824   0.482E-01    0.390E-01
DAV:   5    -0.372763437577E+03    0.71206E-02   -0.19707E-02  5928   0.199E-01    0.103E-01
DAV:   6    -0.372763262266E+03    0.17531E-03   -0.24328E-03  5680   0.766E-02    0.362E-02
DAV:   7    -0.372763286104E+03   -0.23838E-04   -0.11514E-04  3192   0.190E-02
   1 F= -.37276329E+03 E0= -.37276322E+03  d E =-.372763E+03
 curvature:   0.00 expect dE= 0.000E+00 dE for cont linesearch  0.000E+00
 trial: gam= 0.00000 g(F)=  0.228E+02 g(S)=  0.000E+00 ort = 0.000E+00 (trialstep = 0.100E+01)
 search vector abs. value=  0.228E+02
 bond charge predicted
       N       E                     dE             d eps       ncg     rms          rms(c)
DAV:   1    -0.381436222795E+03   -0.86730E+01   -0.17393E+02  5192   0.229E+01    0.314E+00
DAV:   2    -0.381503078979E+03   -0.66856E-01   -0.14809E+01  5608   0.654E+00    0.170E+00
DAV:   3    -0.381372143929E+03    0.13094E+00   -0.80021E-01  5750   0.145E+00    0.828E-01
DAV:   4    -0.381349026410E+03    0.23118E-01   -0.15052E-01  5704   0.576E-01    0.254E-01
DAV:   5    -0.381349174724E+03   -0.14831E-03   -0.14968E-02  5624   0.203E-01    0.116E-01
DAV:   6    -0.381349176581E+03   -0.18565E-05   -0.89574E-04  5920   0.528E-02
   2 F= -.38134918E+03 E0= -.38134909E+03  d E =-.858589E+01
 trial-energy change:   -8.585890  1 .order  -10.689615  -22.777084    1.397855
 step:   0.8918(harm=  0.9422)  dis= 0.20277  next Energy=  -381.427470 (dE=-0.866E+01)
 bond charge predicted
       N       E                     dE             d eps       ncg     rms          rms(c)
DAV:   1    -0.381422817169E+03   -0.73642E-01   -0.19998E+00  5206   0.236E+00    0.344E-01
DAV:   2    -0.381417846703E+03    0.49705E-02   -0.12071E-01  5526   0.617E-01    0.158E-01
DAV:   3    -0.381416525984E+03    0.13207E-02   -0.64347E-03  5788   0.130E-01    0.676E-02
DAV:   4    -0.381416412723E+03    0.11326E-03   -0.10529E-03  5648   0.479E-02    0.225E-02
DAV:   5    -0.381416417707E+03   -0.49843E-05   -0.84073E-05  3016   0.161E-02
   3 F= -.38141642E+03 E0= -.38141635E+03  d E =-.865313E+01
 curvature:  -0.11 expect dE=-0.814E-01 dE for cont linesearch -0.201E-03
 ZBRENT: interpolating
 opt :   0.9054  next Energy=  -381.417784 (dE=-0.865E+01)
 bond charge predicted
       N       E                     dE             d eps       ncg     rms          rms(c)
DAV:   1    -0.381417756680E+03   -0.13440E-02   -0.31526E-02  5194   0.298E-01    0.411E-02
DAV:   2    -0.381417701352E+03    0.55328E-04   -0.18894E-03  5532   0.770E-02    0.194E-02
DAV:   3    -0.381417680169E+03    0.21183E-04   -0.85073E-05  3084   0.159E-02
   4 F= -.38141768E+03 E0= -.38141761E+03  d E =-.865439E+01
 curvature:  -0.77 expect dE=-0.561E+00 dE for cont linesearch -0.268E-05
 trial: gam= 0.03236 g(F)=  0.728E+00 g(S)=  0.000E+00 ort =-0.890E-02 (trialstep = 0.981E+00)
 search vector abs. value=  0.751E+00
 bond charge predicted
       N       E                     dE             d eps       ncg     rms          rms(c)
DAV:   1    -0.381976471958E+03   -0.55877E+00   -0.45070E+00  5254   0.377E+00    0.505E-01
DAV:   2    -0.381969306981E+03    0.71650E-02   -0.30623E-01  5508   0.997E-01    0.229E-01
DAV:   3    -0.381967693644E+03    0.16133E-02   -0.11793E-02  5952   0.184E-01    0.120E-01
DAV:   4    -0.381967328787E+03    0.36486E-03   -0.19571E-03  5668   0.653E-02    0.377E-02
DAV:   5    -0.381967335515E+03   -0.67280E-05   -0.16417E-04  3416   0.225E-02
   5 F= -.38196734E+03 E0= -.38196733E+03  d E =-.549655E+00
 trial-energy change:   -0.549655  1 .order   -0.550676   -0.714126   -0.387227
 step:   2.1432(harm=  2.1432)  dis= 0.05080  next Energy=  -382.197700 (dE=-0.780E+00)
 bond charge predicted
       N       E                     dE             d eps       ncg     rms          rms(c)
DAV:   1    -0.382221452070E+03   -0.25412E+00   -0.62726E+00  5258   0.445E+00    0.588E-01
DAV:   2    -0.382211593419E+03    0.98587E-02   -0.41927E-01  5506   0.117E+00    0.261E-01
DAV:   3    -0.382209619329E+03    0.19741E-02   -0.16199E-02  5968   0.215E-01    0.137E-01
DAV:   4    -0.382209196572E+03    0.42276E-03   -0.24711E-03  5714   0.742E-02    0.440E-02
DAV:   5    -0.382209210677E+03   -0.14105E-04   -0.24465E-04  4104   0.269E-02
   6 F= -.38220921E+03 E0= -.38220915E+03  d E =-.791531E+00
 curvature:  -1.11 expect dE=-0.107E+00 dE for cont linesearch -0.104E-02
 ZBRENT: extrapolating
 opt :   2.2272  next Energy=  -382.210327 (dE=-0.793E+00)
 bond charge predicted
       N       E                     dE             d eps       ncg     rms          rms(c)
DAV:   1    -0.382210491689E+03   -0.12951E-02   -0.33313E-02  5412   0.323E-01    0.435E-02
DAV:   2    -0.382210445032E+03    0.46657E-04   -0.21550E-03  5520   0.844E-02    0.196E-02
DAV:   3    -0.382210433960E+03    0.11072E-04   -0.74960E-05  3200   0.153E-02
   7 F= -.38221043E+03 E0= -.38221036E+03  d E =-.792754E+00
 curvature:  -1.19 expect dE=-0.122E+00 dE for cont linesearch -0.978E-05
 trial: gam= 0.14411 g(F)=  0.103E+00 g(S)=  0.000E+00 ort = 0.249E-02 (trialstep = 0.123E+01)
 search vector abs. value=  0.119E+00
 bond charge predicted
       N       E                     dE             d eps       ncg     rms          rms(c)
DAV:   1    -0.382315376972E+03   -0.10493E+00   -0.97630E-01  5060   0.176E+00    0.204E-01
DAV:   2    -0.382315437655E+03   -0.60683E-04   -0.38388E-02  5752   0.369E-01    0.104E-01
DAV:   3    -0.382315022627E+03    0.41503E-03   -0.22582E-03  5720   0.747E-02    0.421E-02
DAV:   4    -0.382315032588E+03   -0.99609E-05   -0.21455E-04  3680   0.253E-02
   8 F= -.38231503E+03 E0= -.38231497E+03  d E =-.104599E+00
 trial-energy change:   -0.104599  1 .order   -0.104907   -0.126551   -0.083263
 step:   3.5967(harm=  3.5967)  dis= 0.03859  next Energy=  -382.395416 (dE=-0.185E+00)
 bond charge predicted
       N       E                     dE             d eps       ncg     rms          rms(c)
DAV:   1    -0.382397599846E+03   -0.82577E-01   -0.36055E+00  5056   0.337E+00    0.393E-01
DAV:   2    -0.382397817837E+03   -0.21799E-03   -0.14213E-01  5760   0.709E-01    0.200E-01
DAV:   3    -0.382396340556E+03    0.14773E-02   -0.81292E-03  5792   0.143E-01    0.838E-02
DAV:   4    -0.382396383110E+03   -0.42554E-04   -0.89256E-04  5848   0.492E-02
   9 F= -.38239638E+03 E0= -.38239634E+03  d E =-.185949E+00
 curvature:  -2.08 expect dE=-0.135E+00 dE for cont linesearch -0.489E-04
 trial: gam= 0.60231 g(F)=  0.648E-01 g(S)=  0.000E+00 ort = 0.167E-02 (trialstep = 0.170E+01)
 search vector abs. value=  0.110E+00
 bond charge predicted
       N       E                     dE             d eps       ncg     rms          rms(c)
DAV:   1    -0.382488422603E+03   -0.92082E-01   -0.12628E+00  5040   0.214E+00    0.218E-01
DAV:   2    -0.382489348051E+03   -0.92545E-03   -0.39749E-02  5800   0.366E-01    0.118E-01
DAV:   3    -0.382489334009E+03    0.14042E-04   -0.12111E-03  5928   0.574E-02    0.635E-02
DAV:   4    -0.382489353726E+03   -0.19717E-04   -0.14786E-04  3336   0.208E-02
  10 F= -.38248935E+03 E0= -.38248934E+03  d E =-.929706E-01
 trial-energy change:   -0.092971  1 .order   -0.092776   -0.112131   -0.073421
 step:   4.9347(harm=  4.9347)  dis= 0.04958  next Energy=  -382.558787 (dE=-0.162E+00)
 bond charge predicted
       N       E                     dE             d eps       ncg     rms          rms(c)
DAV:   1    -0.382555678771E+03   -0.66345E-01   -0.45676E+00  5040   0.406E+00    0.401E-01
DAV:   2    -0.382559421176E+03   -0.37424E-02   -0.14423E-01  5824   0.698E-01    0.215E-01
DAV:   3    -0.382559398841E+03    0.22334E-04   -0.42779E-03  5912   0.109E-01    0.117E-01
DAV:   4    -0.382559482627E+03   -0.83786E-04   -0.57211E-04  5816   0.390E-02
  11 F= -.38255948E+03 E0= -.38255940E+03  d E =-.163100E+00
 curvature:  -4.12 expect dE=-0.148E+00 dE for cont linesearch -0.269E-04
 trial: gam= 0.57834 g(F)=  0.359E-01 g(S)=  0.000E+00 ort = 0.848E-03 (trialstep = 0.235E+01)
 search vector abs. value=  0.736E-01
 bond charge predicted
       N       E                     dE             d eps       ncg     rms          rms(c)
DAV:   1    -0.382606895452E+03   -0.47497E-01   -0.21957E+00  5074   0.261E+00    0.325E-01
DAV:   2    -0.382604526707E+03    0.23687E-02   -0.10765E-01  5672   0.595E-01    0.149E-01
DAV:   3    -0.382603816859E+03    0.70985E-03   -0.49677E-03  5848   0.114E-01    0.719E-02
DAV:   4    -0.382603810942E+03    0.59169E-05   -0.63555E-04  5712   0.391E-02
  12 F= -.38260381E+03 E0= -.38260371E+03  d E =-.443283E-01
 trial-energy change:   -0.044328  1 .order   -0.044466   -0.085441   -0.003490
 step:   2.4499(harm=  2.4499)  dis= 0.01863  next Energy=  -382.604023 (dE=-0.445E-01)
 bond charge predicted
       N       E                     dE             d eps       ncg     rms          rms(c)
DAV:   1    -0.382603906442E+03   -0.89582E-04   -0.41108E-03  5292   0.112E-01    0.190E-02
DAV:   2    -0.382603904966E+03    0.14760E-05   -0.17304E-04  3680   0.249E-02
  13 F= -.38260390E+03 E0= -.38260382E+03  d E =-.444223E-01
 curvature:  -2.48 expect dE=-0.294E-01 dE for cont linesearch -0.354E-06
 trial: gam= 0.34047 g(F)=  0.119E-01 g(S)=  0.000E+00 ort = 0.103E-03 (trialstep = 0.237E+01)
 search vector abs. value=  0.205E-01
 bond charge predicted
       N       E                     dE             d eps       ncg     rms          rms(c)
DAV:   1    -0.382625855150E+03   -0.21949E-01   -0.48780E-01  5052   0.129E+00    0.133E-01
DAV:   2    -0.382626268461E+03   -0.41331E-03   -0.97811E-03  6048   0.186E-01    0.789E-02
DAV:   3    -0.382626184340E+03    0.84121E-04   -0.62448E-04  5696   0.388E-02
  14 F= -.38262618E+03 E0= -.38262616E+03  d E =-.222794E-01
 trial-energy change:   -0.022279  1 .order   -0.022364   -0.028172   -0.016556
 step:   5.7476(harm=  5.7476)  dis= 0.02751  next Energy=  -382.638069 (dE=-0.342E-01)
 bond charge predicted
       N       E                     dE             d eps       ncg     rms          rms(c)
DAV:   1    -0.382637971498E+03   -0.11703E-01   -0.99182E-01  5056   0.183E+00    0.189E-01
DAV:   2    -0.382638926850E+03   -0.95535E-03   -0.19687E-02  6048   0.264E-01    0.113E-01
DAV:   3    -0.382638783260E+03    0.14359E-03   -0.11904E-03  5728   0.539E-02    0.340E-02
DAV:   4    -0.382638795437E+03   -0.12177E-04   -0.88723E-05  3168   0.176E-02
  15 F= -.38263880E+03 E0= -.38263884E+03  d E =-.348905E-01
 curvature:  -4.95 expect dE=-0.395E-01 dE for cont linesearch -0.734E-05
 trial: gam= 0.64023 g(F)=  0.799E-02 g(S)=  0.000E+00 ort = 0.174E-03 (trialstep = 0.305E+01)
 search vector abs. value=  0.166E-01
 bond charge predicted
       N       E                     dE             d eps       ncg     rms          rms(c)
DAV:   1    -0.382650295096E+03   -0.11512E-01   -0.69802E-01  5052   0.153E+00    0.173E-01
DAV:   2    -0.382650354844E+03   -0.59748E-04   -0.20044E-02  5904   0.264E-01    0.952E-02
DAV:   3    -0.382650141252E+03    0.21359E-03   -0.13264E-03  5736   0.570E-02    0.378E-02
DAV:   4    -0.382650151525E+03   -0.10273E-04   -0.10850E-04  3128   0.190E-02
  16 F= -.38265015E+03 E0= -.38265021E+03  d E =-.113561E-01
 trial-energy change:   -0.011356  1 .order   -0.011337   -0.024681    0.002007
 step:   2.8163(harm=  2.8163)  dis= 0.01938  next Energy=  -382.650208 (dE=-0.114E-01)
 bond charge predicted
       N       E                     dE             d eps       ncg     rms          rms(c)
DAV:   1    -0.382650217899E+03   -0.76648E-04   -0.39077E-03  5208   0.115E-01    0.123E-02
DAV:   2    -0.382650215883E+03    0.20168E-05   -0.96992E-05  3008   0.192E-02
  17 F= -.38265022E+03 E0= -.38265028E+03  d E =-.114204E-01
 curvature:  -2.88 expect dE=-0.768E-02 dE for cont linesearch -0.122E-06
 trial: gam= 0.36308 g(F)=  0.266E-02 g(S)=  0.000E+00 ort = 0.265E-04 (trialstep = 0.300E+01)
 search vector abs. value=  0.487E-02
 bond charge predicted
       N       E                     dE             d eps       ncg     rms          rms(c)
DAV:   1    -0.382654486293E+03   -0.42684E-02   -0.20973E-01  5072   0.831E-01    0.947E-02
DAV:   2    -0.382654508219E+03   -0.21926E-04   -0.72737E-03  5816   0.155E-01    0.510E-02
DAV:   3    -0.382654449508E+03    0.58711E-04   -0.32721E-04  4960   0.292E-02
  18 F= -.38265445E+03 E0= -.38265447E+03  d E =-.423363E-02
 trial-energy change:   -0.004234  1 .order   -0.004210   -0.008011   -0.000408
 step:   3.1605(harm=  3.1605)  dis= 0.01046  next Energy=  -382.654436 (dE=-0.422E-02)
 bond charge predicted
       N       E                     dE             d eps       ncg     rms          rms(c)
DAV:   1    -0.382654464462E+03    0.43757E-04   -0.64264E-04  5376   0.459E-02    0.117E-02
DAV:   2    -0.382654464457E+03    0.49004E-08   -0.19446E-05  2828   0.847E-03
  19 F= -.38265446E+03 E0= -.38265448E+03  d E =-.424857E-02
 curvature:  -2.88 expect dE=-0.273E-02 dE for cont linesearch -0.421E-06
 trial: gam= 0.34034 g(F)=  0.948E-03 g(S)=  0.000E+00 ort = 0.267E-04 (trialstep = 0.303E+01)
 search vector abs. value=  0.153E-02
 bond charge predicted
       N       E                     dE             d eps       ncg     rms          rms(c)
DAV:   1    -0.382655720631E+03   -0.12562E-02   -0.69121E-02  5080   0.475E-01    0.580E-02
DAV:   2    -0.382655718597E+03    0.20342E-05   -0.20921E-03  5920   0.848E-02    0.327E-02
DAV:   3    -0.382655686550E+03    0.32047E-04   -0.14637E-04  3264   0.194E-02
  20 F= -.38265569E+03 E0= -.38265573E+03  d E =-.122209E-02
 trial-energy change:   -0.001222  1 .order   -0.001218   -0.002900    0.000463
 step:   2.6141(harm=  2.6141)  dis= 0.00347  next Energy=  -382.655715 (dE=-0.125E-02)
 reached required accuracy - stopping structural energy minimisation
 writing wavefunctions
* fix calc kpoints:50, xx:0.98, yy:1.02
 running on   32 total cores
 distrk:  each k-point on   32 cores,    1 groups
 distr:  one band on   16 cores,    2 groups
 using from now: INCAR     
 vasp.5.4.4.18Apr17-6-g9f103f2a35 (build Feb 12 2021 11:56:03) complex          
  
 POSCAR found type information on POSCAR  Al
 POSCAR found :  1 types and     104 ions
 scaLAPACK is switched off

 ----------------------------------------------------------------------------- 
|                                                                             |
|           W    W    AA    RRRRR   N    N  II  N    N   GGGG   !!!           |
|           W    W   A  A   R    R  NN   N  II  NN   N  G    G  !!!           |
|           W    W  A    A  R    R  N N  N  II  N N  N  G       !!!           |
|           W WW W  AAAAAA  RRRRR   N  N N  II  N  N N  G  GGG   !            |
|           WW  WW  A    A  R   R   N   NN  II  N   NN  G    G                |
|           W    W  A    A  R    R  N    N  II  N    N   GGGG   !!!           |
|                                                                             |
|      For optimal performance we recommend to set                            |
|        NCORE= 4 - approx SQRT( number of cores)                             |
|      NCORE specifies how many cores store one orbital (NPAR=cpu/NCORE).     |
|      This setting can  greatly improve the performance of VASP for DFT.     |
|      The default,   NCORE=1            might be grossly inefficient         |
|      on modern multi-core architectures or massively parallel machines.     |
|      Do your own testing !!!!                                               |
|      Unfortunately you need to use the default for GW and RPA calculations. |
|      (for HF NCORE is supported but not extensively tested yet)             |
|                                                                             |
 ----------------------------------------------------------------------------- 

 LDA part: xc-table for Pade appr. of Perdew
 generate k-points for:    5    5    3
 found WAVECAR, reading the header
 POSCAR, INCAR and KPOINTS ok, starting setup
 FFT: planning ...
 reading WAVECAR
 the WAVECAR file was read successfully
 initial charge from wavefunction
 entering main loop
       N       E                     dE             d eps       ncg     rms          rms(c)
DAV:   1    -0.382602057945E+03   -0.38260E+03   -0.18329E-04  3052   0.332E-02    0.628E-02
DAV:   2    -0.382601932795E+03    0.12515E-03   -0.44860E-04  5018   0.320E-02    0.322E-02
DAV:   3    -0.382601910334E+03    0.22460E-04   -0.13239E-04  2696   0.174E-02
   1 F= -.38260191E+03 E0= -.38260191E+03  d E =0.000000E+00
 writing wavefunctions
"098_104"
"/usr/local/vasp/vasp.5.4.4.pl2_CentOS7_oneAPI/bin/vasp"
* relax calc kpoints:50, xx:0.98, yy:1.04
 running on   32 total cores
 distrk:  each k-point on   32 cores,    1 groups
 distr:  one band on   16 cores,    2 groups
 using from now: INCAR     
 vasp.5.4.4.18Apr17-6-g9f103f2a35 (build Feb 12 2021 11:56:03) complex          
  
 POSCAR found :  1 types and     104 ions
 scaLAPACK is switched off

 ----------------------------------------------------------------------------- 
|                                                                             |
|           W    W    AA    RRRRR   N    N  II  N    N   GGGG   !!!           |
|           W    W   A  A   R    R  NN   N  II  NN   N  G    G  !!!           |
|           W    W  A    A  R    R  N N  N  II  N N  N  G       !!!           |
|           W WW W  AAAAAA  RRRRR   N  N N  II  N  N N  G  GGG   !            |
|           WW  WW  A    A  R   R   N   NN  II  N   NN  G    G                |
|           W    W  A    A  R    R  N    N  II  N    N   GGGG   !!!           |
|                                                                             |
|      For optimal performance we recommend to set                            |
|        NCORE= 4 - approx SQRT( number of cores)                             |
|      NCORE specifies how many cores store one orbital (NPAR=cpu/NCORE).     |
|      This setting can  greatly improve the performance of VASP for DFT.     |
|      The default,   NCORE=1            might be grossly inefficient         |
|      on modern multi-core architectures or massively parallel machines.     |
|      Do your own testing !!!!                                               |
|      Unfortunately you need to use the default for GW and RPA calculations. |
|      (for HF NCORE is supported but not extensively tested yet)             |
|                                                                             |
 ----------------------------------------------------------------------------- 

 LDA part: xc-table for Pade appr. of Perdew
 generate k-points for:    5    5    3
 found WAVECAR, reading the header
 WAVECAR: different cutoff or change in lattice found
 POSCAR, INCAR and KPOINTS ok, starting setup
 FFT: planning ...
 reading WAVECAR
 the WAVECAR file was read successfully
 WARNING: dimensions on CHGCAR file are different
 entering main loop
       N       E                     dE             d eps       ncg     rms          rms(c)
DAV:   1    -0.376854347801E+03   -0.37685E+03   -0.20329E+02  5130   0.260E+01    0.102E+01
DAV:   2    -0.375623497788E+03    0.12309E+01   -0.63510E+00  5856   0.456E+00    0.630E+00
DAV:   3    -0.374649371800E+03    0.97413E+00   -0.12590E+00  5672   0.164E+00    0.104E+00
DAV:   4    -0.374610159005E+03    0.39213E-01   -0.79436E-02  5784   0.473E-01    0.367E-01
DAV:   5    -0.374604051665E+03    0.61073E-02   -0.17127E-02  5952   0.186E-01    0.104E-01
DAV:   6    -0.374603871133E+03    0.18053E-03   -0.24265E-03  5728   0.759E-02    0.380E-02
DAV:   7    -0.374603900163E+03   -0.29030E-04   -0.14608E-04  3456   0.217E-02
   1 F= -.37460390E+03 E0= -.37460376E+03  d E =-.374604E+03
 curvature:   0.00 expect dE= 0.000E+00 dE for cont linesearch  0.000E+00
 trial: gam= 0.00000 g(F)=  0.175E+02 g(S)=  0.000E+00 ort = 0.000E+00 (trialstep = 0.100E+01)
 search vector abs. value=  0.175E+02
 bond charge predicted
       N       E                     dE             d eps       ncg     rms          rms(c)
DAV:   1    -0.382213538706E+03   -0.76097E+01   -0.13278E+02  5202   0.199E+01    0.267E+00
DAV:   2    -0.382279564594E+03   -0.66026E-01   -0.10810E+01  5632   0.559E+00    0.152E+00
DAV:   3    -0.382166563074E+03    0.11300E+00   -0.60198E-01  5734   0.123E+00    0.692E-01
DAV:   4    -0.382152262838E+03    0.14300E-01   -0.95164E-02  5800   0.465E-01    0.227E-01
DAV:   5    -0.382152350880E+03   -0.88042E-04   -0.79552E-03  5656   0.148E-01    0.817E-02
DAV:   6    -0.382152368629E+03   -0.17749E-04   -0.59182E-04  5856   0.412E-02
   2 F= -.38215237E+03 E0= -.38215223E+03  d E =-.754847E+01
 trial-energy change:   -7.548468  1 .order   -8.877260  -17.476103   -0.278417
 step:   1.0310(harm=  1.0162)  dis= 0.20554  next Energy=  -382.156646 (dE=-0.755E+01)
 bond charge predicted
       N       E                     dE             d eps       ncg     rms          rms(c)
DAV:   1    -0.382156436193E+03   -0.40853E-02   -0.12289E-01  5298   0.583E-01    0.834E-02
DAV:   2    -0.382156163834E+03    0.27236E-03   -0.72066E-03  5592   0.150E-01    0.368E-02
DAV:   3    -0.382156087448E+03    0.76386E-04   -0.37844E-04  5206   0.313E-02
   3 F= -.38215609E+03 E0= -.38215596E+03  d E =-.755219E+01
 curvature:  -0.08 expect dE=-0.442E-01 dE for cont linesearch -0.518E-05
 trial: gam= 0.03272 g(F)=  0.539E+00 g(S)=  0.000E+00 ort =-0.332E-01 (trialstep = 0.101E+01)
 search vector abs. value=  0.555E+00
 bond charge predicted
       N       E                     dE             d eps       ncg     rms          rms(c)
DAV:   1    -0.382581858658E+03   -0.42569E+00   -0.34741E+00  5296   0.330E+00    0.422E-01
DAV:   2    -0.382579146127E+03    0.27125E-02   -0.22472E-01  5542   0.854E-01    0.199E-01
DAV:   3    -0.382577862635E+03    0.12835E-02   -0.84890E-03  5960   0.152E-01    0.101E-01
DAV:   4    -0.382577624594E+03    0.23804E-03   -0.13650E-03  5688   0.549E-02    0.321E-02
DAV:   5    -0.382577631027E+03   -0.64330E-05   -0.12005E-04  3160   0.193E-02
   4 F= -.38257763E+03 E0= -.38257748E+03  d E =-.421544E+00
 trial-energy change:   -0.421544  1 .order   -0.422976   -0.540808   -0.305144
 step:   2.4352(harm=  2.3091)  dis= 0.05087  next Energy=  -382.790209 (dE=-0.634E+00)
 bond charge predicted
       N       E                     dE             d eps       ncg     rms          rms(c)
DAV:   1    -0.382800604179E+03   -0.22298E+00   -0.69571E+00  5298   0.466E+00    0.606E-01
DAV:   2    -0.382792616583E+03    0.79876E-02   -0.46706E-01  5566   0.122E+00    0.275E-01
DAV:   3    -0.382790240314E+03    0.23763E-02   -0.17672E-02  5894   0.225E-01    0.147E-01
DAV:   4    -0.382789724653E+03    0.51566E-03   -0.30074E-03  5726   0.804E-02    0.475E-02
DAV:   5    -0.382789742468E+03   -0.17816E-04   -0.23464E-04  3904   0.266E-02
   5 F= -.38278974E+03 E0= -.38278955E+03  d E =-.633655E+00
 curvature:  -1.18 expect dE=-0.827E-01 dE for cont linesearch -0.155E-04
 trial: gam= 0.13833 g(F)=  0.700E-01 g(S)=  0.000E+00 ort =-0.270E-02 (trialstep = 0.129E+01)
 search vector abs. value=  0.799E-01
 bond charge predicted
       N       E                     dE             d eps       ncg     rms          rms(c)
DAV:   1    -0.382866766275E+03   -0.77042E-01   -0.75138E-01  5106   0.151E+00    0.193E-01
DAV:   2    -0.382866113552E+03    0.65272E-03   -0.31227E-02  5752   0.330E-01    0.933E-02
DAV:   3    -0.382865738379E+03    0.37517E-03   -0.21786E-03  5710   0.705E-02    0.366E-02
DAV:   4    -0.382865748897E+03   -0.10518E-04   -0.17253E-04  3496   0.233E-02
   6 F= -.38286575E+03 E0= -.38286557E+03  d E =-.760064E-01
 trial-energy change:   -0.076006  1 .order   -0.076126   -0.089969   -0.062282
 step:   4.1984(harm=  4.1984)  dis= 0.04290  next Energy=  -382.935922 (dE=-0.146E+00)
 bond charge predicted
       N       E                     dE             d eps       ncg     rms          rms(c)
DAV:   1    -0.382936856387E+03   -0.71118E-01   -0.37788E+00  5086   0.340E+00    0.410E-01
DAV:   2    -0.382936289056E+03    0.56733E-03   -0.15467E-01  5760   0.736E-01    0.203E-01
DAV:   3    -0.382934616784E+03    0.16723E-02   -0.96464E-03  5704   0.152E-01    0.813E-02
DAV:   4    -0.382934683801E+03   -0.67017E-04   -0.92593E-04  5896   0.512E-02
   7 F= -.38293468E+03 E0= -.38293465E+03  d E =-.144941E+00
 curvature:  -2.41 expect dE=-0.104E+00 dE for cont linesearch -0.458E-04
 trial: gam= 0.61213 g(F)=  0.431E-01 g(S)=  0.000E+00 ort =-0.123E-02 (trialstep = 0.187E+01)
 search vector abs. value=  0.715E-01
 bond charge predicted
       N       E                     dE             d eps       ncg     rms          rms(c)
DAV:   1    -0.383000167210E+03   -0.65550E-01   -0.10076E+00  5046   0.189E+00    0.203E-01
DAV:   2    -0.383000586021E+03   -0.41881E-03   -0.34402E-02  5752   0.338E-01    0.107E-01
DAV:   3    -0.383000563324E+03    0.22697E-04   -0.11124E-03  6006   0.540E-02    0.576E-02
DAV:   4    -0.383000575794E+03   -0.12470E-04   -0.13089E-04  3240   0.194E-02
   8 F= -.38300058E+03 E0= -.38300048E+03  d E =-.658920E-01
 trial-energy change:   -0.065892  1 .order   -0.066022   -0.079274   -0.052770
 step:   5.6030(harm=  5.6030)  dis= 0.04414  next Energy=  -383.053240 (dE=-0.119E+00)
 bond charge predicted
       N       E                     dE             d eps       ncg     rms          rms(c)
DAV:   1    -0.383046193752E+03   -0.45630E-01   -0.40046E+00  5040   0.377E+00    0.378E-01
DAV:   2    -0.383049554179E+03   -0.33604E-02   -0.13219E-01  5792   0.666E-01    0.201E-01
DAV:   3    -0.383049517121E+03    0.37059E-04   -0.40653E-03  5960   0.104E-01    0.106E-01
DAV:   4    -0.383049586435E+03   -0.69314E-04   -0.51188E-04  5808   0.369E-02
   9 F= -.38304959E+03 E0= -.38304950E+03  d E =-.114903E+00
 curvature:  -4.73 expect dE=-0.123E+00 dE for cont linesearch -0.244E-03
 trial: gam= 0.63006 g(F)=  0.259E-01 g(S)=  0.000E+00 ort =-0.192E-02 (trialstep = 0.262E+01)
 search vector abs. value=  0.519E-01
 bond charge predicted
       N       E                     dE             d eps       ncg     rms          rms(c)
DAV:   1    -0.383085020346E+03   -0.35503E-01   -0.18365E+00  5072   0.240E+00    0.288E-01
DAV:   2    -0.383083947862E+03    0.10725E-02   -0.88615E-02  5672   0.541E-01    0.134E-01
DAV:   3    -0.383083522119E+03    0.42574E-03   -0.38780E-03  5968   0.989E-02    0.652E-02
DAV:   4    -0.383083527327E+03   -0.52077E-05   -0.41883E-04  5424   0.330E-02
  10 F= -.38308353E+03 E0= -.38308323E+03  d E =-.339409E-01
 trial-energy change:   -0.033941  1 .order   -0.034447   -0.064726   -0.004167
 step:   2.8097(harm=  2.7995)  dis= 0.01882  next Energy=  -383.083679 (dE=-0.341E-01)
 bond charge predicted
       N       E                     dE             d eps       ncg     rms          rms(c)
DAV:   1    -0.383083676639E+03   -0.15452E-03   -0.95564E-03  5252   0.174E-01    0.233E-02
DAV:   2    -0.383083681612E+03   -0.49732E-05   -0.42521E-04  5400   0.377E-02
  11 F= -.38308368E+03 E0= -.38308336E+03  d E =-.340952E-01
 curvature:  -2.93 expect dE=-0.301E-01 dE for cont linesearch -0.328E-06
 trial: gam= 0.33169 g(F)=  0.103E-01 g(S)=  0.000E+00 ort =-0.762E-04 (trialstep = 0.266E+01)
 search vector abs. value=  0.159E-01
 bond charge predicted
       N       E                     dE             d eps       ncg     rms          rms(c)
DAV:   1    -0.383104657881E+03   -0.20981E-01   -0.47535E-01  5070   0.127E+00    0.133E-01
DAV:   2    -0.383105055769E+03   -0.39789E-03   -0.99317E-03  6032   0.187E-01    0.793E-02
DAV:   3    -0.383104989591E+03    0.66178E-04   -0.45324E-04  5686   0.342E-02
  12 F= -.38310499E+03 E0= -.38310462E+03  d E =-.213080E-01
 trial-energy change:   -0.021308  1 .order   -0.021237   -0.027239   -0.015235
 step:   6.0299(harm=  6.0299)  dis= 0.03192  next Energy=  -383.114586 (dE=-0.309E-01)
 bond charge predicted
       N       E                     dE             d eps       ncg     rms          rms(c)
DAV:   1    -0.383114668182E+03   -0.96124E-02   -0.76267E-01  5070   0.161E+00    0.168E-01
DAV:   2    -0.383115382027E+03   -0.71385E-03   -0.15820E-02  6064   0.235E-01    0.101E-01
DAV:   3    -0.383115293273E+03    0.88754E-04   -0.68135E-04  5752   0.423E-02
  13 F= -.38311529E+03 E0= -.38311488E+03  d E =-.316117E-01
 curvature:  -4.69 expect dE=-0.337E-01 dE for cont linesearch -0.496E-04
 trial: gam= 0.69770 g(F)=  0.720E-02 g(S)=  0.000E+00 ort = 0.411E-03 (trialstep = 0.333E+01)
 search vector abs. value=  0.155E-01
 bond charge predicted
       N       E                     dE             d eps       ncg     rms          rms(c)
DAV:   1    -0.383131050943E+03   -0.15669E-01   -0.73699E-01  5068   0.158E+00    0.185E-01
DAV:   2    -0.383130990710E+03    0.60233E-04   -0.20791E-02  5896   0.266E-01    0.102E-01
DAV:   3    -0.383130844572E+03    0.14614E-03   -0.12019E-03  5768   0.546E-02    0.452E-02
DAV:   4    -0.383130854515E+03   -0.99435E-05   -0.95006E-05  3120   0.176E-02
  14 F= -.38313085E+03 E0= -.38313066E+03  d E =-.155612E-01
 trial-energy change:   -0.015561  1 .order   -0.015564   -0.024938   -0.006190
 step:   4.4319(harm=  4.4319)  dis= 0.03115  next Energy=  -383.131879 (dE=-0.166E-01)
 bond charge predicted
       N       E                     dE             d eps       ncg     rms          rms(c)
DAV:   1    -0.383131902368E+03   -0.10578E-02   -0.80761E-02  5092   0.524E-01    0.574E-02
DAV:   2    -0.383131931343E+03   -0.28975E-04   -0.22112E-03  5960   0.870E-02    0.319E-02
DAV:   3    -0.383131916271E+03    0.15073E-04   -0.10420E-04  3166   0.171E-02
  15 F= -.38313192E+03 E0= -.38313174E+03  d E =-.166230E-01
 curvature:  -4.60 expect dE=-0.150E-01 dE for cont linesearch -0.778E-06
 trial: gam= 0.49626 g(F)=  0.326E-02 g(S)=  0.000E+00 ort = 0.513E-04 (trialstep = 0.355E+01)
 search vector abs. value=  0.713E-02
 bond charge predicted
       N       E                     dE             d eps       ncg     rms          rms(c)
DAV:   1    -0.383137169568E+03   -0.52382E-02   -0.42317E-01  5052   0.118E+00    0.139E-01
DAV:   2    -0.383137248952E+03   -0.79384E-04   -0.16147E-02  5784   0.230E-01    0.742E-02
DAV:   3    -0.383137161565E+03    0.87388E-04   -0.66804E-04  5832   0.415E-02
  16 F= -.38313716E+03 E0= -.38313694E+03  d E =-.524529E-02
 trial-energy change:   -0.005245  1 .order   -0.005381   -0.011660    0.000897
 step:   3.2981(harm=  3.2981)  dis= 0.01189  next Energy=  -383.137330 (dE=-0.541E-02)
 bond charge predicted
       N       E                     dE             d eps       ncg     rms          rms(c)
DAV:   1    -0.383137189902E+03    0.59051E-04   -0.23287E-03  5136   0.869E-02    0.845E-03
DAV:   2    -0.383137189229E+03    0.67279E-06   -0.83399E-05  2890   0.172E-02
  17 F= -.38313719E+03 E0= -.38313697E+03  d E =-.527296E-02
 curvature:  -3.58 expect dE=-0.404E-02 dE for cont linesearch -0.413E-07
 trial: gam= 0.30209 g(F)=  0.113E-02 g(S)=  0.000E+00 ort =-0.907E-05 (trialstep = 0.350E+01)
 search vector abs. value=  0.177E-02
 bond charge predicted
       N       E                     dE             d eps       ncg     rms          rms(c)
DAV:   1    -0.383139172378E+03   -0.19825E-02   -0.95785E-02  5052   0.569E-01    0.642E-02
DAV:   2    -0.383139208190E+03   -0.35812E-04   -0.21170E-03  5992   0.862E-02    0.380E-02
DAV:   3    -0.383139175538E+03    0.32653E-04   -0.17373E-04  3408   0.209E-02
  18 F= -.38313918E+03 E0= -.38313892E+03  d E =-.198631E-02
 trial-energy change:   -0.001986  1 .order   -0.001994   -0.003934   -0.000054
 step:   3.5497(harm=  3.5497)  dis= 0.00509  next Energy=  -383.139183 (dE=-0.199E-02)
 reached required accuracy - stopping structural energy minimisation
 writing wavefunctions
* fix calc kpoints:50, xx:0.98, yy:1.04
 running on   32 total cores
 distrk:  each k-point on   32 cores,    1 groups
 distr:  one band on   16 cores,    2 groups
 using from now: INCAR     
 vasp.5.4.4.18Apr17-6-g9f103f2a35 (build Feb 12 2021 11:56:03) complex          
  
 POSCAR found type information on POSCAR  Al
 POSCAR found :  1 types and     104 ions
 scaLAPACK is switched off

 ----------------------------------------------------------------------------- 
|                                                                             |
|           W    W    AA    RRRRR   N    N  II  N    N   GGGG   !!!           |
|           W    W   A  A   R    R  NN   N  II  NN   N  G    G  !!!           |
|           W    W  A    A  R    R  N N  N  II  N N  N  G       !!!           |
|           W WW W  AAAAAA  RRRRR   N  N N  II  N  N N  G  GGG   !            |
|           WW  WW  A    A  R   R   N   NN  II  N   NN  G    G                |
|           W    W  A    A  R    R  N    N  II  N    N   GGGG   !!!           |
|                                                                             |
|      For optimal performance we recommend to set                            |
|        NCORE= 4 - approx SQRT( number of cores)                             |
|      NCORE specifies how many cores store one orbital (NPAR=cpu/NCORE).     |
|      This setting can  greatly improve the performance of VASP for DFT.     |
|      The default,   NCORE=1            might be grossly inefficient         |
|      on modern multi-core architectures or massively parallel machines.     |
|      Do your own testing !!!!                                               |
|      Unfortunately you need to use the default for GW and RPA calculations. |
|      (for HF NCORE is supported but not extensively tested yet)             |
|                                                                             |
 ----------------------------------------------------------------------------- 

 LDA part: xc-table for Pade appr. of Perdew
 generate k-points for:    5    5    3
 found WAVECAR, reading the header
 POSCAR, INCAR and KPOINTS ok, starting setup
 FFT: planning ...
 reading WAVECAR
 the WAVECAR file was read successfully
 initial charge from wavefunction
 entering main loop
       N       E                     dE             d eps       ncg     rms          rms(c)
DAV:   1    -0.383118559823E+03   -0.38312E+03   -0.18577E-04  3196   0.343E-02    0.389E-02
DAV:   2    -0.383118718462E+03   -0.15864E-03   -0.17512E-04  3216   0.186E-02    0.189E-02
DAV:   3    -0.383118781092E+03   -0.62630E-04   -0.56217E-05  2712   0.112E-02
   1 F= -.38311878E+03 E0= -.38311878E+03  d E =0.000000E+00
 writing wavefunctions
"098_106"
"/usr/local/vasp/vasp.5.4.4.pl2_CentOS7_oneAPI/bin/vasp"
* relax calc kpoints:50, xx:0.98, yy:1.06
 running on   32 total cores
 distrk:  each k-point on   32 cores,    1 groups
 distr:  one band on   16 cores,    2 groups
 using from now: INCAR     
 vasp.5.4.4.18Apr17-6-g9f103f2a35 (build Feb 12 2021 11:56:03) complex          
  
 POSCAR found :  1 types and     104 ions
 scaLAPACK is switched off

 ----------------------------------------------------------------------------- 
|                                                                             |
|           W    W    AA    RRRRR   N    N  II  N    N   GGGG   !!!           |
|           W    W   A  A   R    R  NN   N  II  NN   N  G    G  !!!           |
|           W    W  A    A  R    R  N N  N  II  N N  N  G       !!!           |
|           W WW W  AAAAAA  RRRRR   N  N N  II  N  N N  G  GGG   !            |
|           WW  WW  A    A  R   R   N   NN  II  N   NN  G    G                |
|           W    W  A    A  R    R  N    N  II  N    N   GGGG   !!!           |
|                                                                             |
|      For optimal performance we recommend to set                            |
|        NCORE= 4 - approx SQRT( number of cores)                             |
|      NCORE specifies how many cores store one orbital (NPAR=cpu/NCORE).     |
|      This setting can  greatly improve the performance of VASP for DFT.     |
|      The default,   NCORE=1            might be grossly inefficient         |
|      on modern multi-core architectures or massively parallel machines.     |
|      Do your own testing !!!!                                               |
|      Unfortunately you need to use the default for GW and RPA calculations. |
|      (for HF NCORE is supported but not extensively tested yet)             |
|                                                                             |
 ----------------------------------------------------------------------------- 

 LDA part: xc-table for Pade appr. of Perdew
 generate k-points for:    5    5    3
 found WAVECAR, reading the header
 WAVECAR: different cutoff or change in lattice found
 POSCAR, INCAR and KPOINTS ok, starting setup
 FFT: planning ...
 reading WAVECAR
 the WAVECAR file was read successfully
 WARNING: dimensions on CHGCAR file are different
 entering main loop
       N       E                     dE             d eps       ncg     rms          rms(c)
DAV:   1    -0.378026222374E+03   -0.37803E+03   -0.19111E+02  5104   0.251E+01    0.995E+00
DAV:   2    -0.376881305871E+03    0.11449E+01   -0.61849E+00  5840   0.448E+00    0.616E+00
DAV:   3    -0.375944590592E+03    0.93672E+00   -0.11755E+00  5656   0.159E+00    0.977E-01
DAV:   4    -0.375910715158E+03    0.33875E-01   -0.70845E-02  5888   0.445E-01    0.337E-01
DAV:   5    -0.375905428092E+03    0.52871E-02   -0.15086E-02  5920   0.177E-01    0.985E-02
DAV:   6    -0.375905329688E+03    0.98403E-04   -0.22571E-03  5744   0.721E-02    0.352E-02
DAV:   7    -0.375905370124E+03   -0.40436E-04   -0.11209E-04  3256   0.189E-02
   1 F= -.37590537E+03 E0= -.37590545E+03  d E =-.375905E+03
 curvature:   0.00 expect dE= 0.000E+00 dE for cont linesearch  0.000E+00
 trial: gam= 0.00000 g(F)=  0.133E+02 g(S)=  0.000E+00 ort = 0.000E+00 (trialstep = 0.100E+01)
 search vector abs. value=  0.133E+02
 bond charge predicted
       N       E                     dE             d eps       ncg     rms          rms(c)
DAV:   1    -0.382442627658E+03   -0.65373E+01   -0.10178E+02  5258   0.172E+01    0.234E+00
DAV:   2    -0.382441748445E+03    0.87921E-03   -0.79475E+00  5548   0.481E+00    0.129E+00
DAV:   3    -0.382359986156E+03    0.81762E-01   -0.45108E-01  5838   0.107E+00    0.591E-01
DAV:   4    -0.382349185000E+03    0.10801E-01   -0.75951E-02  5720   0.410E-01    0.187E-01
DAV:   5    -0.382349346259E+03   -0.16126E-03   -0.66457E-03  5640   0.134E-01    0.741E-02
DAV:   6    -0.382349363495E+03   -0.17236E-04   -0.47323E-04  5694   0.372E-02
   2 F= -.38234936E+03 E0= -.38234922E+03  d E =-.644399E+01
 trial-energy change:   -6.443993  1 .order   -7.275820  -13.271026   -1.280615
 step:   1.2163(harm=  1.1068)  dis= 0.21176  next Energy=  -382.479459 (dE=-0.657E+01)
 bond charge predicted
       N       E                     dE             d eps       ncg     rms          rms(c)
DAV:   1    -0.382459754278E+03   -0.11041E+00   -0.45283E+00  5242   0.355E+00    0.481E-01
DAV:   2    -0.382454234738E+03    0.55195E-02   -0.27038E-01  5550   0.918E-01    0.225E-01
DAV:   3    -0.382451666298E+03    0.25684E-02   -0.13375E-02  5786   0.188E-01    0.969E-02
DAV:   4    -0.382451508030E+03    0.15827E-03   -0.19698E-03  5712   0.662E-02    0.354E-02
DAV:   5    -0.382451517140E+03   -0.91096E-05   -0.17830E-04  3422   0.223E-02
   3 F= -.38245152E+03 E0= -.38245131E+03  d E =-.654615E+01
 curvature:   0.03 expect dE= 0.126E-01 dE for cont linesearch  0.197E-03
 ZBRENT: interpolating
 opt :   1.1750  next Energy=  -382.457764 (dE=-0.655E+01)
 bond charge predicted
       N       E                     dE             d eps       ncg     rms          rms(c)
DAV:   1    -0.382458542868E+03   -0.70348E-02   -0.16489E-01  5252   0.673E-01    0.902E-02
DAV:   2    -0.382458325791E+03    0.21708E-03   -0.93759E-03  5592   0.172E-01    0.435E-02
DAV:   3    -0.382458221961E+03    0.10383E-03   -0.49322E-04  5666   0.356E-02    0.185E-02
DAV:   4    -0.382458214487E+03    0.74742E-05   -0.74022E-05  2882   0.132E-02
   4 F= -.38245821E+03 E0= -.38245806E+03  d E =-.655284E+01
 curvature:  -0.91 expect dE=-0.377E+00 dE for cont linesearch -0.225E-04
 trial: gam= 0.03270 g(F)=  0.416E+00 g(S)=  0.000E+00 ort =-0.181E-01 (trialstep = 0.104E+01)
 search vector abs. value=  0.429E+00
 bond charge predicted
       N       E                     dE             d eps       ncg     rms          rms(c)
DAV:   1    -0.382804299293E+03   -0.34608E+00   -0.28300E+00  5300   0.296E+00    0.386E-01
DAV:   2    -0.382801398183E+03    0.29011E-02   -0.19015E-01  5586   0.784E-01    0.173E-01
DAV:   3    -0.382800453592E+03    0.94459E-03   -0.72138E-03  5888   0.144E-01    0.934E-02
DAV:   4    -0.382800230367E+03    0.22322E-03   -0.12768E-03  5694   0.518E-02    0.295E-02
DAV:   5    -0.382800234999E+03   -0.46318E-05   -0.91914E-05  3094   0.171E-02
   5 F= -.38280023E+03 E0= -.38280009E+03  d E =-.342021E+00
 trial-energy change:   -0.342021  1 .order   -0.343289   -0.429799   -0.256778
 step:   2.7765(harm=  2.5710)  dis= 0.05074  next Energy=  -383.010217 (dE=-0.552E+00)
 bond charge predicted
       N       E                     dE             d eps       ncg     rms          rms(c)
DAV:   1    -0.383018282706E+03   -0.21805E+00   -0.79568E+00  5324   0.496E+00    0.649E-01
DAV:   2    -0.383008912797E+03    0.93699E-02   -0.53069E-01  5636   0.131E+00    0.287E-01
DAV:   3    -0.383006576735E+03    0.23361E-02   -0.20724E-02  5856   0.241E-01    0.151E-01
DAV:   4    -0.383006077996E+03    0.49874E-03   -0.30899E-03  5766   0.826E-02    0.496E-02
DAV:   5    -0.383006103186E+03   -0.25190E-04   -0.28361E-04  4318   0.289E-02
   6 F= -.38300610E+03 E0= -.38300608E+03  d E =-.547889E+00
 curvature:  -1.30 expect dE=-0.672E-01 dE for cont linesearch -0.255E-03
 trial: gam= 0.15162 g(F)=  0.515E-01 g(S)=  0.000E+00 ort =-0.916E-02 (trialstep = 0.138E+01)
 search vector abs. value=  0.586E-01
 bond charge predicted
       N       E                     dE             d eps       ncg     rms          rms(c)
DAV:   1    -0.383064490176E+03   -0.58412E-01   -0.65608E-01  5124   0.140E+00    0.182E-01
DAV:   2    -0.383063850770E+03    0.63941E-03   -0.31025E-02  5648   0.328E-01    0.827E-02
DAV:   3    -0.383063584283E+03    0.26649E-03   -0.17285E-03  5750   0.656E-02    0.375E-02
DAV:   4    -0.383063581824E+03    0.24597E-05   -0.16985E-04  3432   0.217E-02
   7 F= -.38306358E+03 E0= -.38306335E+03  d E =-.574786E-01
 trial-energy change:   -0.057479  1 .order   -0.057497   -0.069388   -0.045606
 step:   4.0360(harm=  4.0360)  dis= 0.03846  next Energy=  -383.107327 (dE=-0.101E+00)
 bond charge predicted
       N       E                     dE             d eps       ncg     rms          rms(c)
DAV:   1    -0.383111755513E+03   -0.48171E-01   -0.24264E+00  5072   0.270E+00    0.345E-01
DAV:   2    -0.383109614675E+03    0.21408E-02   -0.11366E-01  5656   0.628E-01    0.161E-01
DAV:   3    -0.383108584108E+03    0.10306E-02   -0.67115E-03  5734   0.128E-01    0.702E-02
DAV:   4    -0.383108592724E+03   -0.86158E-05   -0.67116E-04  5800   0.422E-02
   8 F= -.38310859E+03 E0= -.38310851E+03  d E =-.102490E+00
 curvature:  -2.36 expect dE=-0.462E-01 dE for cont linesearch -0.938E-05
 trial: gam= 0.33726 g(F)=  0.196E-01 g(S)=  0.000E+00 ort = 0.483E-03 (trialstep = 0.191E+01)
 search vector abs. value=  0.266E-01
 bond charge predicted
       N       E                     dE             d eps       ncg     rms          rms(c)
DAV:   1    -0.383140591065E+03   -0.32007E-01   -0.41064E-01  5072   0.119E+00    0.135E-01
DAV:   2    -0.383140647263E+03   -0.56198E-04   -0.15926E-02  5678   0.231E-01    0.700E-02
DAV:   3    -0.383140600031E+03    0.47232E-04   -0.57681E-04  5808   0.388E-02
   9 F= -.38314060E+03 E0= -.38314056E+03  d E =-.320073E-01
 trial-energy change:   -0.032007  1 .order   -0.031952   -0.037775   -0.026130
 step:   6.2082(harm=  6.2082)  dis= 0.03215  next Energy=  -383.169861 (dE=-0.613E-01)
 bond charge predicted
       N       E                     dE             d eps       ncg     rms          rms(c)
DAV:   1    -0.383168353413E+03   -0.27706E-01   -0.20775E+00  5058   0.268E+00    0.292E-01
DAV:   2    -0.383169330917E+03   -0.97750E-03   -0.79059E-02  5664   0.515E-01    0.151E-01
DAV:   3    -0.383169187227E+03    0.14369E-03   -0.26750E-03  5928   0.844E-02    0.818E-02
DAV:   4    -0.383169204649E+03   -0.17422E-04   -0.35640E-04  5088   0.302E-02
  10 F= -.38316920E+03 E0= -.38316907E+03  d E =-.606119E-01
 curvature:  -4.18 expect dE=-0.673E-01 dE for cont linesearch -0.902E-05
 trial: gam= 0.90123 g(F)=  0.161E-01 g(S)=  0.000E+00 ort =-0.239E-03 (trialstep = 0.198E+01)
 search vector abs. value=  0.373E-01
 bond charge predicted
       N       E                     dE             d eps       ncg     rms          rms(c)
DAV:   1    -0.383191345842E+03   -0.22159E-01   -0.68744E-01  5050   0.149E+00    0.169E-01
DAV:   2    -0.383191393974E+03   -0.48131E-04   -0.29860E-02  5728   0.312E-01    0.839E-02
DAV:   3    -0.383191263436E+03    0.13054E-03   -0.11610E-03  5936   0.558E-02    0.441E-02
DAV:   4    -0.383191264357E+03   -0.92073E-06   -0.15782E-04  3256   0.201E-02
  11 F= -.38319126E+03 E0= -.38319115E+03  d E =-.220597E-01
 trial-energy change:   -0.022060  1 .order   -0.022184   -0.031427   -0.012942
 step:   3.3615(harm=  3.3615)  dis= 0.01921  next Energy=  -383.195919 (dE=-0.267E-01)
 bond charge predicted
       N       E                     dE             d eps       ncg     rms          rms(c)
DAV:   1    -0.383196104879E+03   -0.48414E-02   -0.34017E-01  5056   0.105E+00    0.121E-01
DAV:   2    -0.383196075751E+03    0.29128E-04   -0.15003E-02  5736   0.221E-01    0.587E-02
DAV:   3    -0.383196022149E+03    0.53603E-04   -0.57390E-04  5840   0.398E-02
  12 F= -.38319602E+03 E0= -.38319590E+03  d E =-.268175E-01
 curvature:  -3.94 expect dE=-0.229E-01 dE for cont linesearch -0.203E-04
 trial: gam= 0.32751 g(F)=  0.580E-02 g(S)=  0.000E+00 ort = 0.438E-03 (trialstep = 0.225E+01)
 search vector abs. value=  0.101E-01
 bond charge predicted
       N       E                     dE             d eps       ncg     rms          rms(c)
DAV:   1    -0.383207633484E+03   -0.11558E-01   -0.21110E-01  5072   0.844E-01    0.967E-02
DAV:   2    -0.383207763665E+03   -0.13018E-03   -0.43742E-03  5992   0.124E-01    0.564E-02
DAV:   3    -0.383207728922E+03    0.34743E-04   -0.31722E-04  4416   0.279E-02
  13 F= -.38320773E+03 E0= -.38320753E+03  d E =-.117068E-01
 trial-energy change:   -0.011707  1 .order   -0.011671   -0.013399   -0.009944
 step:   8.7414(harm=  8.7414)  dis= 0.02865  next Energy=  -383.222002 (dE=-0.260E-01)
 bond charge predicted
       N       E                     dE             d eps       ncg     rms          rms(c)
DAV:   1    -0.383220943725E+03   -0.13180E-01   -0.17499E+00  5048   0.243E+00    0.256E-01
DAV:   2    -0.383222485107E+03   -0.15414E-02   -0.35976E-02  6008   0.357E-01    0.152E-01
DAV:   3    -0.383222202931E+03    0.28218E-03   -0.29351E-03  5752   0.824E-02    0.400E-02
DAV:   4    -0.383222194607E+03    0.83247E-05   -0.30422E-04  4152   0.313E-02
  14 F= -.38322219E+03 E0= -.38322208E+03  d E =-.261725E-01
 curvature:  -7.41 expect dE=-0.530E-01 dE for cont linesearch -0.913E-05
 trial: gam= 1.38091 g(F)=  0.714E-02 g(S)=  0.000E+00 ort =-0.111E-03 (trialstep = 0.137E+01)
 search vector abs. value=  0.261E-01
 bond charge predicted
       N       E                     dE             d eps       ncg     rms          rms(c)
DAV:   1    -0.383230341824E+03   -0.81389E-02   -0.19007E-01  5078   0.815E-01    0.873E-02
DAV:   2    -0.383230431875E+03   -0.90051E-04   -0.45201E-03  5952   0.123E-01    0.489E-02
DAV:   3    -0.383230423024E+03    0.88507E-05   -0.18097E-04  3590   0.228E-02
  15 F= -.38323042E+03 E0= -.38323033E+03  d E =-.822842E-02
 trial-energy change:   -0.008228  1 .order   -0.008231   -0.009604   -0.006858
 step:   4.8055(harm=  4.8055)  dis= 0.03486  next Energy=  -383.238988 (dE=-0.168E-01)
 bond charge predicted
       N       E                     dE             d eps       ncg     rms          rms(c)
DAV:   1    -0.383237863727E+03   -0.74319E-02   -0.11930E+00  5048   0.204E+00    0.220E-01
DAV:   2    -0.383238483057E+03   -0.61933E-03   -0.28640E-02  5952   0.309E-01    0.124E-01
DAV:   3    -0.383238445455E+03    0.37602E-04   -0.12791E-03  5856   0.574E-02    0.544E-02
DAV:   4    -0.383238463681E+03   -0.18225E-04   -0.12815E-04  3216   0.199E-02
  16 F= -.38323846E+03 E0= -.38323854E+03  d E =-.162691E-01
 curvature:  -8.96 expect dE=-0.234E-01 dE for cont linesearch -0.492E-04
 trial: gam= 0.26914 g(F)=  0.261E-02 g(S)=  0.000E+00 ort =-0.378E-03 (trialstep = 0.206E+01)
 search vector abs. value=  0.430E-02
 bond charge predicted
       N       E                     dE             d eps       ncg     rms          rms(c)
DAV:   1    -0.383242270739E+03   -0.38253E-02   -0.93016E-02  5078   0.540E-01    0.635E-02
DAV:   2    -0.383242277442E+03   -0.67036E-05   -0.45890E-03  5680   0.122E-01    0.306E-02
DAV:   3    -0.383242261624E+03    0.15818E-04   -0.14798E-04  3672   0.210E-02
  17 F= -.38324226E+03 E0= -.38324237E+03  d E =-.379794E-02
 trial-energy change:   -0.003798  1 .order   -0.003800   -0.005172   -0.002429
 step:   3.8857(harm=  3.8857)  dis= 0.01147  next Energy=  -383.243340 (dE=-0.488E-02)
 bond charge predicted
       N       E                     dE             d eps       ncg     rms          rms(c)
DAV:   1    -0.383243274397E+03   -0.99695E-03   -0.72909E-02  5076   0.478E-01    0.591E-02
DAV:   2    -0.383243286186E+03   -0.11789E-04   -0.35885E-03  5696   0.108E-01    0.294E-02
DAV:   3    -0.383243274910E+03    0.11276E-04   -0.11445E-04  3448   0.185E-02
  18 F= -.38324327E+03 E0= -.38324340E+03  d E =-.481123E-02
 curvature:  -3.33 expect dE=-0.305E-02 dE for cont linesearch -0.152E-05
 trial: gam= 0.32425 g(F)=  0.918E-03 g(S)=  0.000E+00 ort =-0.443E-04 (trialstep = 0.243E+01)
 search vector abs. value=  0.134E-02
 bond charge predicted
       N       E                     dE             d eps       ncg     rms          rms(c)
DAV:   1    -0.383244821901E+03   -0.15357E-02   -0.36626E-02  5056   0.347E-01    0.417E-02
DAV:   2    -0.383244830813E+03   -0.89126E-05   -0.12881E-03  5824   0.657E-02    0.228E-02
DAV:   3    -0.383244819937E+03    0.10876E-04   -0.61467E-05  2958   0.128E-02
  19 F= -.38324482E+03 E0= -.38324492E+03  d E =-.154503E-02
 trial-energy change:   -0.001545  1 .order   -0.001543   -0.002191   -0.000895
 step:   4.1009(harm=  4.1009)  dis= 0.00813  next Energy=  -383.245128 (dE=-0.185E-02)
 reached required accuracy - stopping structural energy minimisation
 writing wavefunctions
* fix calc kpoints:50, xx:0.98, yy:1.06
 running on   32 total cores
 distrk:  each k-point on   32 cores,    1 groups
 distr:  one band on   16 cores,    2 groups
 using from now: INCAR     
 vasp.5.4.4.18Apr17-6-g9f103f2a35 (build Feb 12 2021 11:56:03) complex          
  
 POSCAR found type information on POSCAR  Al
 POSCAR found :  1 types and     104 ions
 scaLAPACK is switched off

 ----------------------------------------------------------------------------- 
|                                                                             |
|           W    W    AA    RRRRR   N    N  II  N    N   GGGG   !!!           |
|           W    W   A  A   R    R  NN   N  II  NN   N  G    G  !!!           |
|           W    W  A    A  R    R  N N  N  II  N N  N  G       !!!           |
|           W WW W  AAAAAA  RRRRR   N  N N  II  N  N N  G  GGG   !            |
|           WW  WW  A    A  R   R   N   NN  II  N   NN  G    G                |
|           W    W  A    A  R    R  N    N  II  N    N   GGGG   !!!           |
|                                                                             |
|      For optimal performance we recommend to set                            |
|        NCORE= 4 - approx SQRT( number of cores)                             |
|      NCORE specifies how many cores store one orbital (NPAR=cpu/NCORE).     |
|      This setting can  greatly improve the performance of VASP for DFT.     |
|      The default,   NCORE=1            might be grossly inefficient         |
|      on modern multi-core architectures or massively parallel machines.     |
|      Do your own testing !!!!                                               |
|      Unfortunately you need to use the default for GW and RPA calculations. |
|      (for HF NCORE is supported but not extensively tested yet)             |
|                                                                             |
 ----------------------------------------------------------------------------- 

 LDA part: xc-table for Pade appr. of Perdew
 generate k-points for:    5    5    3
 found WAVECAR, reading the header
 POSCAR, INCAR and KPOINTS ok, starting setup
 FFT: planning ...
 reading WAVECAR
 the WAVECAR file was read successfully
 initial charge from wavefunction
 entering main loop
       N       E                     dE             d eps       ncg     rms          rms(c)
DAV:   1    -0.383229309255E+03   -0.38323E+03   -0.13809E-04  2796   0.296E-02    0.412E-02
DAV:   2    -0.383229243004E+03    0.66252E-04   -0.21454E-04  3890   0.221E-02
   1 F= -.38322924E+03 E0= -.38322924E+03  d E =0.000000E+00
 writing wavefunctions
"100_102"
"/usr/local/vasp/vasp.5.4.4.pl2_CentOS7_oneAPI/bin/vasp"
* relax calc kpoints:50, xx:1.00, yy:1.02
 running on   32 total cores
 distrk:  each k-point on   32 cores,    1 groups
 distr:  one band on   16 cores,    2 groups
 using from now: INCAR     
 vasp.5.4.4.18Apr17-6-g9f103f2a35 (build Feb 12 2021 11:56:03) complex          
  
 POSCAR found :  1 types and     104 ions
 scaLAPACK is switched off

 ----------------------------------------------------------------------------- 
|                                                                             |
|           W    W    AA    RRRRR   N    N  II  N    N   GGGG   !!!           |
|           W    W   A  A   R    R  NN   N  II  NN   N  G    G  !!!           |
|           W    W  A    A  R    R  N N  N  II  N N  N  G       !!!           |
|           W WW W  AAAAAA  RRRRR   N  N N  II  N  N N  G  GGG   !            |
|           WW  WW  A    A  R   R   N   NN  II  N   NN  G    G                |
|           W    W  A    A  R    R  N    N  II  N    N   GGGG   !!!           |
|                                                                             |
|      For optimal performance we recommend to set                            |
|        NCORE= 4 - approx SQRT( number of cores)                             |
|      NCORE specifies how many cores store one orbital (NPAR=cpu/NCORE).     |
|      This setting can  greatly improve the performance of VASP for DFT.     |
|      The default,   NCORE=1            might be grossly inefficient         |
|      on modern multi-core architectures or massively parallel machines.     |
|      Do your own testing !!!!                                               |
|      Unfortunately you need to use the default for GW and RPA calculations. |
|      (for HF NCORE is supported but not extensively tested yet)             |
|                                                                             |
 ----------------------------------------------------------------------------- 

 LDA part: xc-table for Pade appr. of Perdew
 generate k-points for:    5    5    3
 found WAVECAR, reading the header
 WAVECAR: different cutoff or change in lattice found
 POSCAR, INCAR and KPOINTS ok, starting setup
 FFT: planning ...
 reading WAVECAR
 the WAVECAR file was read successfully
 WARNING: dimensions on CHGCAR file are different
 entering main loop
       N       E                     dE             d eps       ncg     rms          rms(c)
DAV:   1    -0.375946407087E+03   -0.37595E+03   -0.21865E+02  5398   0.259E+01    0.104E+01
DAV:   2    -0.374711085020E+03    0.12353E+01   -0.82447E+00  5864   0.512E+00    0.642E+00
DAV:   3    -0.373731880647E+03    0.97920E+00   -0.15928E+00  5708   0.181E+00    0.119E+00
DAV:   4    -0.373685639059E+03    0.46242E-01   -0.93413E-02  5872   0.513E-01    0.407E-01
DAV:   5    -0.373677599680E+03    0.80394E-02   -0.20944E-02  5856   0.206E-01    0.100E-01
DAV:   6    -0.373677501162E+03    0.98519E-04   -0.24254E-03  5800   0.760E-02    0.333E-02
DAV:   7    -0.373677524742E+03   -0.23580E-04   -0.96266E-05  3136   0.170E-02
   1 F= -.37367752E+03 E0= -.37367771E+03  d E =-.373678E+03
 curvature:   0.00 expect dE= 0.000E+00 dE for cont linesearch  0.000E+00
 trial: gam= 0.00000 g(F)=  0.226E+02 g(S)=  0.000E+00 ort = 0.000E+00 (trialstep = 0.100E+01)
 search vector abs. value=  0.226E+02
 bond charge predicted
       N       E                     dE             d eps       ncg     rms          rms(c)
DAV:   1    -0.382538471894E+03   -0.88610E+01   -0.16930E+02  5188   0.225E+01    0.305E+00
DAV:   2    -0.382660145988E+03   -0.12167E+00   -0.14591E+01  5606   0.645E+00    0.175E+00
DAV:   3    -0.382528960964E+03    0.13119E+00   -0.81154E-01  5776   0.144E+00    0.848E-01
DAV:   4    -0.382504999490E+03    0.23961E-01   -0.14051E-01  5680   0.559E-01    0.260E-01
DAV:   5    -0.382505485511E+03   -0.48602E-03   -0.11926E-02  5800   0.187E-01    0.109E-01
DAV:   6    -0.382505504584E+03   -0.19074E-04   -0.99495E-04  5800   0.514E-02
   2 F= -.38250550E+03 E0= -.38250554E+03  d E =-.882798E+01
 trial-energy change:   -8.827980  1 .order  -10.957432  -22.614700    0.699836
 step:   0.9382(harm=  0.9700)  dis= 0.21402  next Energy=  -382.527626 (dE=-0.885E+01)
 bond charge predicted
       N       E                     dE             d eps       ncg     rms          rms(c)
DAV:   1    -0.382524604747E+03   -0.19119E-01   -0.63561E-01  5250   0.133E+00    0.191E-01
DAV:   2    -0.382523334799E+03    0.12699E-02   -0.38205E-02  5496   0.343E-01    0.910E-02
DAV:   3    -0.382522930358E+03    0.40444E-03   -0.19400E-03  5838   0.724E-02    0.409E-02
DAV:   4    -0.382522888940E+03    0.41419E-04   -0.36989E-04  5216   0.278E-02
   3 F= -.38252289E+03 E0= -.38252274E+03  d E =-.884536E+01
 curvature:   0.06 expect dE= 0.410E-01 dE for cont linesearch  0.577E-04
 ZBRENT: interpolating
 opt :   0.9491  next Energy=  -382.523705 (dE=-0.885E+01)
 bond charge predicted
       N       E                     dE             d eps       ncg     rms          rms(c)
DAV:   1    -0.382523711062E+03   -0.78070E-03   -0.19294E-02  5292   0.232E-01    0.322E-02
DAV:   2    -0.382523668410E+03    0.42651E-04   -0.12602E-03  5478   0.618E-02    0.142E-02
DAV:   3    -0.382523655795E+03    0.12615E-04   -0.55068E-05  2962   0.131E-02
   4 F= -.38252366E+03 E0= -.38252354E+03  d E =-.884613E+01
 curvature:  -0.82 expect dE=-0.586E+00 dE for cont linesearch -0.118E-06
 trial: gam= 0.03158 g(F)=  0.712E+00 g(S)=  0.000E+00 ort =-0.180E-02 (trialstep = 0.990E+00)
 search vector abs. value=  0.735E+00
 bond charge predicted
       N       E                     dE             d eps       ncg     rms          rms(c)
DAV:   1    -0.383081955613E+03   -0.55829E+00   -0.44678E+00  5248   0.372E+00    0.506E-01
DAV:   2    -0.383073789953E+03    0.81657E-02   -0.32151E-01  5520   0.100E+00    0.226E-01
DAV:   3    -0.383072364281E+03    0.14257E-02   -0.12255E-02  5870   0.188E-01    0.121E-01
DAV:   4    -0.383071961551E+03    0.40273E-03   -0.21624E-03  5752   0.677E-02    0.357E-02
DAV:   5    -0.383071968585E+03   -0.70335E-05   -0.22090E-04  3896   0.255E-02
   5 F= -.38307197E+03 E0= -.38307195E+03  d E =-.548313E+00
 trial-energy change:   -0.548313  1 .order   -0.551067   -0.705119   -0.397015
 step:   2.4616(harm=  2.2653)  dis= 0.06158  next Energy=  -383.358077 (dE=-0.834E+00)
 bond charge predicted
       N       E                     dE             d eps       ncg     rms          rms(c)
DAV:   1    -0.383360712922E+03   -0.28875E+00   -0.97839E+00  5286   0.550E+00    0.717E-01
DAV:   2    -0.383348910380E+03    0.11803E-01   -0.67437E-01  5528   0.146E+00    0.320E-01
DAV:   3    -0.383346176807E+03    0.27336E-02   -0.24971E-02  5928   0.269E-01    0.174E-01
DAV:   4    -0.383345462648E+03    0.71416E-03   -0.42277E-03  5720   0.955E-02    0.531E-02
DAV:   5    -0.383345491270E+03   -0.28621E-04   -0.44166E-04  5432   0.349E-02
   6 F= -.38334549E+03 E0= -.38334543E+03  d E =-.821835E+00
 curvature:  -1.14 expect dE=-0.104E+00 dE for cont linesearch -0.642E-03
 ZBRENT: interpolating
 opt :   2.3906  next Energy=  -383.346213 (dE=-0.823E+00)
 bond charge predicted
       N       E                     dE             d eps       ncg     rms          rms(c)
DAV:   1    -0.383346256145E+03   -0.79350E-03   -0.21724E-02  5360   0.260E-01    0.322E-02
DAV:   2    -0.383346223935E+03    0.32210E-04   -0.14370E-03  5528   0.675E-02    0.135E-02
DAV:   3    -0.383346217379E+03    0.65568E-05   -0.45939E-05  2986   0.122E-02
   7 F= -.38334622E+03 E0= -.38334616E+03  d E =-.822562E+00
 curvature:  -1.28 expect dE=-0.109E+00 dE for cont linesearch -0.190E-06
 trial: gam= 0.12439 g(F)=  0.853E-01 g(S)=  0.000E+00 ort =-0.330E-03 (trialstep = 0.127E+01)
 search vector abs. value=  0.966E-01
 bond charge predicted
       N       E                     dE             d eps       ncg     rms          rms(c)
DAV:   1    -0.383434061758E+03   -0.87838E-01   -0.90588E-01  5122   0.166E+00    0.193E-01
DAV:   2    -0.383434124641E+03   -0.62883E-04   -0.38019E-02  5752   0.365E-01    0.967E-02
DAV:   3    -0.383433681570E+03    0.44307E-03   -0.22762E-03  5670   0.743E-02    0.388E-02
DAV:   4    -0.383433687096E+03   -0.55263E-05   -0.23159E-04  3840   0.254E-02
   8 F= -.38343369E+03 E0= -.38343358E+03  d E =-.874697E-01
 trial-energy change:   -0.087470  1 .order   -0.087821   -0.108293   -0.067349
 step:   3.3590(harm=  3.3590)  dis= 0.03186  next Energy=  -383.489430 (dE=-0.143E+00)
 bond charge predicted
       N       E                     dE             d eps       ncg     rms          rms(c)
DAV:   1    -0.383490628622E+03   -0.56947E-01   -0.24508E+00  5092   0.273E+00    0.319E-01
DAV:   2    -0.383491086012E+03   -0.45739E-03   -0.10161E-01  5744   0.597E-01    0.163E-01
DAV:   3    -0.383489832791E+03    0.12532E-02   -0.64145E-03  5690   0.124E-01    0.626E-02
DAV:   4    -0.383489874181E+03   -0.41390E-04   -0.66047E-04  5704   0.424E-02
   9 F= -.38348987E+03 E0= -.38348982E+03  d E =-.143657E+00
 curvature:  -1.90 expect dE=-0.772E-01 dE for cont linesearch -0.655E-05
 trial: gam= 0.45030 g(F)=  0.406E-01 g(S)=  0.000E+00 ort = 0.576E-03 (trialstep = 0.169E+01)
 search vector abs. value=  0.607E-01
 bond charge predicted
       N       E                     dE             d eps       ncg     rms          rms(c)
DAV:   1    -0.383547674550E+03   -0.57842E-01   -0.68055E-01  5064   0.156E+00    0.160E-01
DAV:   2    -0.383548092238E+03   -0.41769E-03   -0.20259E-02  5816   0.260E-01    0.872E-02
DAV:   3    -0.383548079665E+03    0.12573E-04   -0.66818E-04  5896   0.423E-02
  10 F= -.38354808E+03 E0= -.38354802E+03  d E =-.582055E-01
 trial-energy change:   -0.058205  1 .order   -0.058427   -0.068893   -0.047961
 step:   5.5551(harm=  5.5551)  dis= 0.04326  next Energy=  -383.603250 (dE=-0.113E+00)
 bond charge predicted
       N       E                     dE             d eps       ncg     rms          rms(c)
DAV:   1    -0.383602693576E+03   -0.54601E-01   -0.35793E+00  5044   0.357E+00    0.365E-01
DAV:   2    -0.383604977462E+03   -0.22839E-02   -0.10659E-01  5808   0.598E-01    0.197E-01
DAV:   3    -0.383604947574E+03    0.29887E-04   -0.35566E-03  5944   0.976E-02    0.104E-01
DAV:   4    -0.383605023673E+03   -0.76099E-04   -0.45761E-04  5680   0.348E-02
  11 F= -.38360502E+03 E0= -.38360496E+03  d E =-.115149E+00
 curvature:  -4.13 expect dE=-0.124E+00 dE for cont linesearch -0.112E-03
 trial: gam= 0.73650 g(F)=  0.300E-01 g(S)=  0.000E+00 ort = 0.128E-02 (trialstep = 0.231E+01)
 search vector abs. value=  0.648E-01
 bond charge predicted
       N       E                     dE             d eps       ncg     rms          rms(c)
DAV:   1    -0.383646099948E+03   -0.41152E-01   -0.17152E+00  5116   0.233E+00    0.268E-01
DAV:   2    -0.383645827326E+03    0.27262E-03   -0.78160E-02  5712   0.503E-01    0.128E-01
DAV:   3    -0.383645453234E+03    0.37409E-03   -0.30648E-03  5880   0.915E-02    0.666E-02
DAV:   4    -0.383645445591E+03    0.76428E-05   -0.48787E-04  5656   0.334E-02
  12 F= -.38364545E+03 E0= -.38364541E+03  d E =-.404219E-01
 trial-energy change:   -0.040422  1 .order   -0.040586   -0.071261   -0.009912
 step:   2.6781(harm=  2.6781)  dis= 0.01971  next Energy=  -383.646411 (dE=-0.414E-01)
 bond charge predicted
       N       E                     dE             d eps       ncg     rms          rms(c)
DAV:   1    -0.383646325368E+03   -0.87213E-03   -0.45606E-02  5194   0.379E-01    0.478E-02
DAV:   2    -0.383646318503E+03    0.68655E-05   -0.21015E-03  5702   0.824E-02    0.238E-02
DAV:   3    -0.383646309507E+03    0.89956E-05   -0.75054E-05  3166   0.153E-02
  13 F= -.38364631E+03 E0= -.38364626E+03  d E =-.412858E-01
 curvature:  -2.81 expect dE=-0.181E-01 dE for cont linesearch -0.818E-06
 trial: gam= 0.26721 g(F)=  0.644E-02 g(S)=  0.000E+00 ort = 0.137E-03 (trialstep = 0.238E+01)
 search vector abs. value=  0.111E-01
 bond charge predicted
       N       E                     dE             d eps       ncg     rms          rms(c)
DAV:   1    -0.383659297675E+03   -0.12979E-01   -0.25282E-01  5088   0.930E-01    0.926E-02
DAV:   2    -0.383659532856E+03   -0.23518E-03   -0.49125E-03  6040   0.131E-01    0.550E-02
DAV:   3    -0.383659510217E+03    0.22639E-04   -0.20603E-04  3800   0.243E-02
  14 F= -.38365951E+03 E0= -.38365948E+03  d E =-.132007E-01
 trial-energy change:   -0.013201  1 .order   -0.013231   -0.015414   -0.011047
 step:   8.4016(harm=  8.4016)  dis= 0.02836  next Energy=  -383.673514 (dE=-0.272E-01)
 bond charge predicted
       N       E                     dE             d eps       ncg     rms          rms(c)
DAV:   1    -0.383670772927E+03   -0.11240E-01   -0.16176E+00  5048   0.235E+00    0.228E-01
DAV:   2    -0.383672592638E+03   -0.18197E-02   -0.30808E-02  6056   0.328E-01    0.137E-01
DAV:   3    -0.383672492102E+03    0.10054E-03   -0.13213E-03  5768   0.593E-02    0.515E-02
DAV:   4    -0.383672525352E+03   -0.33250E-04   -0.13266E-04  3304   0.203E-02
  15 F= -.38367253E+03 E0= -.38367236E+03  d E =-.262158E-01
 curvature:  -7.22 expect dE=-0.390E-01 dE for cont linesearch -0.773E-04
 trial: gam= 0.87143 g(F)=  0.540E-02 g(S)=  0.000E+00 ort =-0.345E-03 (trialstep = 0.301E+01)
 search vector abs. value=  0.133E-01
 bond charge predicted
       N       E                     dE             d eps       ncg     rms          rms(c)
DAV:   1    -0.383681286428E+03   -0.87943E-02   -0.51522E-01  5050   0.131E+00    0.145E-01
DAV:   2    -0.383681508105E+03   -0.22168E-03   -0.14800E-02  5944   0.224E-01    0.801E-02
DAV:   3    -0.383681409548E+03    0.98557E-04   -0.80170E-04  5742   0.449E-02
  16 F= -.38368141E+03 E0= -.38368120E+03  d E =-.888420E-02
 trial-energy change:   -0.008884  1 .order   -0.008904   -0.015362   -0.002445
 step:   3.5807(harm=  3.5807)  dis= 0.01934  next Energy=  -383.681661 (dE=-0.914E-02)
 bond charge predicted
       N       E                     dE             d eps       ncg     rms          rms(c)
DAV:   1    -0.383681618681E+03   -0.11058E-03   -0.18530E-02  5248   0.249E-01    0.363E-02
DAV:   2    -0.383681634539E+03   -0.15858E-04   -0.50835E-04  5630   0.418E-02
  17 F= -.38368163E+03 E0= -.38368143E+03  d E =-.910919E-02
 curvature:  -4.65 expect dE=-0.981E-02 dE for cont linesearch -0.122E-06
 trial: gam= 0.33415 g(F)=  0.211E-02 g(S)=  0.000E+00 ort = 0.187E-04 (trialstep = 0.312E+01)
 search vector abs. value=  0.360E-02
 bond charge predicted
       N       E                     dE             d eps       ncg     rms          rms(c)
DAV:   1    -0.383685307169E+03   -0.36885E-02   -0.17614E-01  5076   0.746E-01    0.904E-02
DAV:   2    -0.383685369350E+03   -0.62182E-04   -0.67999E-03  5822   0.150E-01    0.491E-02
DAV:   3    -0.383685317790E+03    0.51560E-04   -0.28500E-04  4454   0.277E-02
  18 F= -.38368532E+03 E0= -.38368506E+03  d E =-.368325E-02
 trial-energy change:   -0.003683  1 .order   -0.003592   -0.006611   -0.000573
 step:   3.4214(harm=  3.4214)  dis= 0.01111  next Energy=  -383.685254 (dE=-0.362E-02)
 reached required accuracy - stopping structural energy minimisation
 writing wavefunctions
* fix calc kpoints:50, xx:1.00, yy:1.02
 running on   32 total cores
 distrk:  each k-point on   32 cores,    1 groups
 distr:  one band on   16 cores,    2 groups
 using from now: INCAR     
 vasp.5.4.4.18Apr17-6-g9f103f2a35 (build Feb 12 2021 11:56:03) complex          
  
 POSCAR found type information on POSCAR  Al
 POSCAR found :  1 types and     104 ions
 scaLAPACK is switched off

 ----------------------------------------------------------------------------- 
|                                                                             |
|           W    W    AA    RRRRR   N    N  II  N    N   GGGG   !!!           |
|           W    W   A  A   R    R  NN   N  II  NN   N  G    G  !!!           |
|           W    W  A    A  R    R  N N  N  II  N N  N  G       !!!           |
|           W WW W  AAAAAA  RRRRR   N  N N  II  N  N N  G  GGG   !            |
|           WW  WW  A    A  R   R   N   NN  II  N   NN  G    G                |
|           W    W  A    A  R    R  N    N  II  N    N   GGGG   !!!           |
|                                                                             |
|      For optimal performance we recommend to set                            |
|        NCORE= 4 - approx SQRT( number of cores)                             |
|      NCORE specifies how many cores store one orbital (NPAR=cpu/NCORE).     |
|      This setting can  greatly improve the performance of VASP for DFT.     |
|      The default,   NCORE=1            might be grossly inefficient         |
|      on modern multi-core architectures or massively parallel machines.     |
|      Do your own testing !!!!                                               |
|      Unfortunately you need to use the default for GW and RPA calculations. |
|      (for HF NCORE is supported but not extensively tested yet)             |
|                                                                             |
 ----------------------------------------------------------------------------- 

 LDA part: xc-table for Pade appr. of Perdew
 generate k-points for:    5    5    3
 found WAVECAR, reading the header
 POSCAR, INCAR and KPOINTS ok, starting setup
 FFT: planning ...
 reading WAVECAR
 the WAVECAR file was read successfully
 initial charge from wavefunction
 entering main loop
       N       E                     dE             d eps       ncg     rms          rms(c)
DAV:   1    -0.383658872158E+03   -0.38366E+03   -0.24328E-04  3640   0.356E-02    0.438E-02
DAV:   2    -0.383658772722E+03    0.99436E-04   -0.21368E-04  3798   0.238E-02
   1 F= -.38365877E+03 E0= -.38365877E+03  d E =0.000000E+00
 writing wavefunctions
"100_104"
"/usr/local/vasp/vasp.5.4.4.pl2_CentOS7_oneAPI/bin/vasp"
* relax calc kpoints:50, xx:1.00, yy:1.04
 running on   32 total cores
 distrk:  each k-point on   32 cores,    1 groups
 distr:  one band on   16 cores,    2 groups
 using from now: INCAR     
 vasp.5.4.4.18Apr17-6-g9f103f2a35 (build Feb 12 2021 11:56:03) complex          
  
 POSCAR found :  1 types and     104 ions
 scaLAPACK is switched off

 ----------------------------------------------------------------------------- 
|                                                                             |
|           W    W    AA    RRRRR   N    N  II  N    N   GGGG   !!!           |
|           W    W   A  A   R    R  NN   N  II  NN   N  G    G  !!!           |
|           W    W  A    A  R    R  N N  N  II  N N  N  G       !!!           |
|           W WW W  AAAAAA  RRRRR   N  N N  II  N  N N  G  GGG   !            |
|           WW  WW  A    A  R   R   N   NN  II  N   NN  G    G                |
|           W    W  A    A  R    R  N    N  II  N    N   GGGG   !!!           |
|                                                                             |
|      For optimal performance we recommend to set                            |
|        NCORE= 4 - approx SQRT( number of cores)                             |
|      NCORE specifies how many cores store one orbital (NPAR=cpu/NCORE).     |
|      This setting can  greatly improve the performance of VASP for DFT.     |
|      The default,   NCORE=1            might be grossly inefficient         |
|      on modern multi-core architectures or massively parallel machines.     |
|      Do your own testing !!!!                                               |
|      Unfortunately you need to use the default for GW and RPA calculations. |
|      (for HF NCORE is supported but not extensively tested yet)             |
|                                                                             |
 ----------------------------------------------------------------------------- 

 LDA part: xc-table for Pade appr. of Perdew
 generate k-points for:    5    5    3
 found WAVECAR, reading the header
 WAVECAR: different cutoff or change in lattice found
 POSCAR, INCAR and KPOINTS ok, starting setup
 FFT: planning ...
 reading WAVECAR
 the WAVECAR file was read successfully
 WARNING: dimensions on CHGCAR file are different
 entering main loop
       N       E                     dE             d eps       ncg     rms          rms(c)
DAV:   1    -0.377426862852E+03   -0.37743E+03   -0.20880E+02  5136   0.259E+01    0.102E+01
DAV:   2    -0.376212701516E+03    0.12142E+01   -0.72102E+00  5784   0.480E+00    0.628E+00
DAV:   3    -0.375267657052E+03    0.94504E+00   -0.14033E+00  5720   0.171E+00    0.113E+00
DAV:   4    -0.375224452415E+03    0.43205E-01   -0.85235E-02  5888   0.482E-01    0.383E-01
DAV:   5    -0.375217524513E+03    0.69279E-02   -0.18883E-02  5904   0.193E-01    0.100E-01
DAV:   6    -0.375217413355E+03    0.11116E-03   -0.23371E-03  5702   0.741E-02    0.345E-02
DAV:   7    -0.375217449881E+03   -0.36526E-04   -0.10161E-04  3192   0.178E-02
   1 F= -.37521745E+03 E0= -.37521721E+03  d E =-.375217E+03
 curvature:   0.00 expect dE= 0.000E+00 dE for cont linesearch  0.000E+00
 trial: gam= 0.00000 g(F)=  0.175E+02 g(S)=  0.000E+00 ort = 0.000E+00 (trialstep = 0.100E+01)
 search vector abs. value=  0.175E+02
 bond charge predicted
       N       E                     dE             d eps       ncg     rms          rms(c)
DAV:   1    -0.382831992134E+03   -0.76146E+01   -0.13102E+02  5216   0.197E+01    0.254E+00
DAV:   2    -0.383002401826E+03   -0.17041E+00   -0.10725E+01  5578   0.552E+00    0.150E+00
DAV:   3    -0.382899849670E+03    0.10255E+00   -0.55260E-01  5710   0.118E+00    0.720E-01
DAV:   4    -0.382882422168E+03    0.17428E-01   -0.10733E-01  5680   0.484E-01    0.212E-01
DAV:   5    -0.382882778091E+03   -0.35592E-03   -0.95451E-03  5680   0.164E-01    0.883E-02
DAV:   6    -0.382882812533E+03   -0.34442E-04   -0.63618E-04  5872   0.424E-02
   2 F= -.38288281E+03 E0= -.38288274E+03  d E =-.766536E+01
 trial-energy change:   -7.665363  1 .order   -9.044743  -17.535402   -0.554083
 step:   1.0681(harm=  1.0326)  dis= 0.21460  next Energy=  -382.901232 (dE=-0.768E+01)
 bond charge predicted
       N       E                     dE             d eps       ncg     rms          rms(c)
DAV:   1    -0.382898294717E+03   -0.15517E-01   -0.58142E-01  5238   0.127E+00    0.168E-01
DAV:   2    -0.382897618057E+03    0.67666E-03   -0.34756E-02  5558   0.326E-01    0.794E-02
DAV:   3    -0.382897307439E+03    0.31062E-03   -0.16135E-03  5804   0.673E-02    0.374E-02
DAV:   4    -0.382897269453E+03    0.37986E-04   -0.33632E-04  4958   0.265E-02
   3 F= -.38289727E+03 E0= -.38289722E+03  d E =-.767982E+01
 curvature:   0.09 expect dE= 0.484E-01 dE for cont linesearch  0.778E-04
 ZBRENT: interpolating
 opt :   1.0558  next Energy=  -382.898014 (dE=-0.768E+01)
 bond charge predicted
       N       E                     dE             d eps       ncg     rms          rms(c)
DAV:   1    -0.382898066643E+03   -0.75920E-03   -0.18555E-02  5236   0.227E-01    0.298E-02
DAV:   2    -0.382898035661E+03    0.30982E-04   -0.11862E-03  5440   0.600E-02    0.132E-02
DAV:   3    -0.382898025105E+03    0.10556E-04   -0.50104E-05  2944   0.125E-02
   4 F= -.38289803E+03 E0= -.38289796E+03  d E =-.768058E+01
 curvature:  -0.88 expect dE=-0.456E+00 dE for cont linesearch -0.585E-06
 trial: gam= 0.02962 g(F)=  0.516E+00 g(S)=  0.000E+00 ort =-0.341E-02 (trialstep = 0.101E+01)
 search vector abs. value=  0.531E+00
 bond charge predicted
       N       E                     dE             d eps       ncg     rms          rms(c)
DAV:   1    -0.383315621159E+03   -0.41759E+00   -0.33085E+00  5266   0.319E+00    0.406E-01
DAV:   2    -0.383313357446E+03    0.22637E-02   -0.21870E-01  5566   0.832E-01    0.192E-01
DAV:   3    -0.383312222797E+03    0.11346E-02   -0.80653E-03  5920   0.150E-01    0.993E-02
[...]
|           W    W  A    A  R    R  N N  N  II  N N  N  G       !!!           |
|           W WW W  AAAAAA  RRRRR   N  N N  II  N  N N  G  GGG   !            |
|           WW  WW  A    A  R   R   N   NN  II  N   NN  G    G                |
|           W    W  A    A  R    R  N    N  II  N    N   GGGG   !!!           |
|                                                                             |
|      For optimal performance we recommend to set                            |
|        NCORE= 4 - approx SQRT( number of cores)                             |
|      NCORE specifies how many cores store one orbital (NPAR=cpu/NCORE).     |
|      This setting can  greatly improve the performance of VASP for DFT.     |
|      The default,   NCORE=1            might be grossly inefficient         |
|      on modern multi-core architectures or massively parallel machines.     |
|      Do your own testing !!!!                                               |
|      Unfortunately you need to use the default for GW and RPA calculations. |
|      (for HF NCORE is supported but not extensively tested yet)             |
|                                                                             |
 ----------------------------------------------------------------------------- 

 LDA part: xc-table for Pade appr. of Perdew
 generate k-points for:    5    5    3
 found WAVECAR, reading the header
 POSCAR, INCAR and KPOINTS ok, starting setup
 FFT: planning ...
 reading WAVECAR
 the WAVECAR file was read successfully
 initial charge from wavefunction
 entering main loop
       N       E                     dE             d eps       ncg     rms          rms(c)
DAV:   1    -0.382900767314E+03   -0.38290E+03   -0.20025E-04  3500   0.365E-02    0.409E-02
DAV:   2    -0.382900689909E+03    0.77405E-04   -0.13610E-04  3252   0.184E-02
   1 F= -.38290069E+03 E0= -.38290069E+03  d E =0.000000E+00
 writing wavefunctions
"102_106"
"/usr/local/vasp/vasp.5.4.4.pl2_CentOS7_oneAPI/bin/vasp"
* relax calc kpoints:50, xx:1.02, yy:1.06
 running on   32 total cores
 distrk:  each k-point on   32 cores,    1 groups
 distr:  one band on   16 cores,    2 groups
 using from now: INCAR     
 vasp.5.4.4.18Apr17-6-g9f103f2a35 (build Feb 12 2021 11:56:03) complex          
  
 POSCAR found :  1 types and     104 ions
 scaLAPACK is switched off

 ----------------------------------------------------------------------------- 
|                                                                             |
|           W    W    AA    RRRRR   N    N  II  N    N   GGGG   !!!           |
|           W    W   A  A   R    R  NN   N  II  NN   N  G    G  !!!           |
|           W    W  A    A  R    R  N N  N  II  N N  N  G       !!!           |
|           W WW W  AAAAAA  RRRRR   N  N N  II  N  N N  G  GGG   !            |
|           WW  WW  A    A  R   R   N   NN  II  N   NN  G    G                |
|           W    W  A    A  R    R  N    N  II  N    N   GGGG   !!!           |
|                                                                             |
|      For optimal performance we recommend to set                            |
|        NCORE= 4 - approx SQRT( number of cores)                             |
|      NCORE specifies how many cores store one orbital (NPAR=cpu/NCORE).     |
|      This setting can  greatly improve the performance of VASP for DFT.     |
|      The default,   NCORE=1            might be grossly inefficient         |
|      on modern multi-core architectures or massively parallel machines.     |
|      Do your own testing !!!!                                               |
|      Unfortunately you need to use the default for GW and RPA calculations. |
|      (for HF NCORE is supported but not extensively tested yet)             |
|                                                                             |
 ----------------------------------------------------------------------------- 

 LDA part: xc-table for Pade appr. of Perdew
 generate k-points for:    5    5    3
 found WAVECAR, reading the header
 WAVECAR: different cutoff or change in lattice found
 POSCAR, INCAR and KPOINTS ok, starting setup
 FFT: planning ...
 reading WAVECAR
 the WAVECAR file was read successfully
 WARNING: dimensions on CHGCAR file are different
 entering main loop
       N       E                     dE             d eps       ncg     rms          rms(c)
DAV:   1    -0.376761972266E+03   -0.37676E+03   -0.19405E+02  5250   0.243E+01    0.995E+00
DAV:   2    -0.375660758235E+03    0.11012E+01   -0.77920E+00  5766   0.490E+00    0.614E+00
DAV:   3    -0.374766716019E+03    0.89404E+00   -0.15108E+00  5724   0.175E+00    0.114E+00
DAV:   4    -0.374723081205E+03    0.43635E-01   -0.93531E-02  5920   0.501E-01    0.381E-01
DAV:   5    -0.374715975469E+03    0.71057E-02   -0.19639E-02  5886   0.196E-01    0.102E-01
DAV:   6    -0.374715880933E+03    0.94535E-04   -0.26513E-03  5790   0.773E-02    0.350E-02
DAV:   7    -0.374715923056E+03   -0.42123E-04   -0.10270E-04  3176   0.179E-02
   1 F= -.37471592E+03 E0= -.37471587E+03  d E =-.374716E+03
 curvature:   0.00 expect dE= 0.000E+00 dE for cont linesearch  0.000E+00
 trial: gam= 0.00000 g(F)=  0.133E+02 g(S)=  0.000E+00 ort = 0.000E+00 (trialstep = 0.100E+01)
 search vector abs. value=  0.133E+02
 bond charge predicted
       N       E                     dE             d eps       ncg     rms          rms(c)
DAV:   1    -0.381232305690E+03   -0.65164E+01   -0.97833E+01  5200   0.168E+01    0.209E+00
DAV:   2    -0.381417553219E+03   -0.18525E+00   -0.77824E+00  5668   0.464E+00    0.131E+00
DAV:   3    -0.381338043676E+03    0.79510E-01   -0.38761E-01  5686   0.974E-01    0.622E-01
DAV:   4    -0.381325833263E+03    0.12210E-01   -0.77464E-02  5734   0.405E-01    0.184E-01
DAV:   5    -0.381326138822E+03   -0.30556E-03   -0.66217E-03  5728   0.135E-01    0.712E-02
DAV:   6    -0.381326162033E+03   -0.23210E-04   -0.47879E-04  5774   0.359E-02
   2 F= -.38132616E+03 E0= -.38132627E+03  d E =-.661024E+01
 trial-energy change:   -6.610239  1 .order   -7.475162  -13.332757   -1.617567
 step:   1.3396(harm=  1.1381)  dis= 0.23640  next Energy=  -381.566943 (dE=-0.685E+01)
 bond charge predicted
       N       E                     dE             d eps       ncg     rms          rms(c)
DAV:   1    -0.381495532105E+03   -0.16939E+00   -0.10726E+01  5160   0.541E+00    0.665E-01
DAV:   2    -0.381496828492E+03   -0.12964E-02   -0.63160E-01  5656   0.138E+00    0.349E-01
DAV:   3    -0.381490570482E+03    0.62580E-02   -0.30108E-02  5762   0.281E-01    0.156E-01
DAV:   4    -0.381490019251E+03    0.55123E-03   -0.55488E-03  5760   0.109E-01    0.515E-02
DAV:   5    -0.381490063518E+03   -0.44267E-04   -0.53266E-04  5496   0.381E-02
   3 F= -.38149006E+03 E0= -.38149008E+03  d E =-.677414E+01
 curvature:   0.64 expect dE= 0.265E+00 dE for cont linesearch  0.148E-01
 ZBRENT: interpolating
 opt :   1.2530  next Energy=  -381.514025 (dE=-0.680E+01)
 bond charge predicted
       N       E                     dE             d eps       ncg     rms          rms(c)
DAV:   1    -0.381516810384E+03   -0.26791E-01   -0.68456E-01  5176   0.136E+00    0.172E-01
DAV:   2    -0.381516323085E+03    0.48730E-03   -0.38039E-02  5628   0.341E-01    0.847E-02
DAV:   3    -0.381515962016E+03    0.36107E-03   -0.19051E-03  5738   0.706E-02    0.373E-02
DAV:   4    -0.381515931271E+03    0.30745E-04   -0.31578E-04  4968   0.262E-02
   4 F= -.38151593E+03 E0= -.38151597E+03  d E =-.680001E+01
 curvature:  -1.04 expect dE=-0.376E+00 dE for cont linesearch -0.164E-03
 trial: gam= 0.03049 g(F)=  0.361E+00 g(S)=  0.000E+00 ort =-0.458E-01 (trialstep = 0.105E+01)
 search vector abs. value=  0.370E+00
 bond charge predicted
       N       E                     dE             d eps       ncg     rms          rms(c)
DAV:   1    -0.381824230757E+03   -0.30827E+00   -0.24630E+00  5256   0.272E+00    0.326E-01
DAV:   2    -0.381824697210E+03   -0.46645E-03   -0.15987E-01  5622   0.704E-01    0.160E-01
DAV:   3    -0.381823924167E+03    0.77304E-03   -0.57968E-03  5928   0.126E-01    0.824E-02
DAV:   4    -0.381823756997E+03    0.16717E-03   -0.10082E-03  5796   0.469E-02    0.249E-02
DAV:   5    -0.381823763037E+03   -0.60397E-05   -0.11140E-04  3020   0.183E-02
   5 F= -.38182376E+03 E0= -.38182373E+03  d E =-.307832E+00
 trial-energy change:   -0.307832  1 .order   -0.307997   -0.377519   -0.238475
 step:   2.8525(harm=  2.8525)  dis= 0.05414  next Energy=  -382.028433 (dE=-0.513E+00)
 bond charge predicted
       N       E                     dE             d eps       ncg     rms          rms(c)
DAV:   1    -0.382042233709E+03   -0.21848E+00   -0.71672E+00  5264   0.464E+00    0.551E-01
DAV:   2    -0.382045591548E+03   -0.33578E-02   -0.46012E-01  5628   0.120E+00    0.266E-01
DAV:   3    -0.382043576017E+03    0.20155E-02   -0.15871E-02  5904   0.212E-01    0.144E-01
DAV:   4    -0.382043083308E+03    0.49271E-03   -0.31008E-03  5740   0.808E-02    0.425E-02
DAV:   5    -0.382043107270E+03   -0.23962E-04   -0.28293E-04  4254   0.287E-02
   6 F= -.38204311E+03 E0= -.38204302E+03  d E =-.527176E+00
 curvature:  -1.47 expect dE=-0.502E-01 dE for cont linesearch -0.175E-02
 ZBRENT: extrapolating
 opt :   3.0363  next Energy=  -382.045038 (dE=-0.529E+00)
 bond charge predicted
       N       E                     dE             d eps       ncg     rms          rms(c)
DAV:   1    -0.382045301037E+03   -0.22177E-02   -0.74915E-02  5344   0.473E-01    0.592E-02
DAV:   2    -0.382045297369E+03    0.36682E-05   -0.47103E-03  5636   0.122E-01    0.276E-02
DAV:   3    -0.382045276917E+03    0.20452E-04   -0.15356E-04  3596   0.219E-02
   7 F= -.38204528E+03 E0= -.38204513E+03  d E =-.529346E+00
 curvature:  -1.62 expect dE=-0.585E-01 dE for cont linesearch -0.268E-04
 trial: gam= 0.09158 g(F)=  0.361E-01 g(S)=  0.000E+00 ort = 0.248E-02 (trialstep = 0.145E+01)
 search vector abs. value=  0.397E-01
 bond charge predicted
       N       E                     dE             d eps       ncg     rms          rms(c)
DAV:   1    -0.382088090128E+03   -0.42793E-01   -0.50038E-01  5152   0.120E+00    0.128E-01
DAV:   2    -0.382088749105E+03   -0.65898E-03   -0.21364E-02  5766   0.271E-01    0.672E-02
DAV:   3    -0.382088502297E+03    0.24681E-03   -0.12393E-03  5666   0.542E-02    0.241E-02
DAV:   4    -0.382088512669E+03   -0.10372E-04   -0.11776E-04  3076   0.188E-02
   8 F= -.38208851E+03 E0= -.38208841E+03  d E =-.432358E-01
 trial-energy change:   -0.043236  1 .order   -0.043094   -0.052580   -0.033607
 step:   4.0121(harm=  4.0121)  dis= 0.03301  next Energy=  -382.118134 (dE=-0.729E-01)
 bond charge predicted
       N       E                     dE             d eps       ncg     rms          rms(c)
DAV:   1    -0.382118532857E+03   -0.30031E-01   -0.15749E+00  5142   0.212E+00    0.234E-01
DAV:   2    -0.382120242646E+03   -0.17098E-02   -0.67291E-02  5750   0.480E-01    0.121E-01
DAV:   3    -0.382119456043E+03    0.78660E-03   -0.40660E-03  5676   0.978E-02    0.432E-02
DAV:   4    -0.382119495717E+03   -0.39674E-04   -0.39230E-04  4702   0.337E-02
   9 F= -.38211950E+03 E0= -.38211952E+03  d E =-.742188E-01
 curvature:  -2.19 expect dE=-0.286E-01 dE for cont linesearch -0.782E-04
 trial: gam= 0.32392 g(F)=  0.130E-01 g(S)=  0.000E+00 ort = 0.119E-02 (trialstep = 0.196E+01)
 search vector abs. value=  0.180E-01
 bond charge predicted
       N       E                     dE             d eps       ncg     rms          rms(c)
DAV:   1    -0.382141387883E+03   -0.21932E-01   -0.28300E-01  5082   0.979E-01    0.988E-02
DAV:   2    -0.382141643731E+03   -0.25585E-03   -0.81411E-03  5896   0.164E-01    0.552E-02
DAV:   3    -0.382141621951E+03    0.21780E-04   -0.31191E-04  4608   0.295E-02
  10 F= -.38214162E+03 E0= -.38214158E+03  d E =-.221262E-01
 trial-energy change:   -0.022126  1 .order   -0.022193   -0.026323   -0.018063
 step:   6.2487(harm=  6.2487)  dis= 0.03678  next Energy=  -382.161442 (dE=-0.419E-01)
 bond charge predicted
       N       E                     dE             d eps       ncg     rms          rms(c)
DAV:   1    -0.382160228295E+03   -0.18585E-01   -0.13531E+00  5040   0.214E+00    0.215E-01
DAV:   2    -0.382161561221E+03   -0.13329E-02   -0.38543E-02  5920   0.358E-01    0.120E-01
DAV:   3    -0.382161476157E+03    0.85064E-04   -0.15721E-03  5816   0.645E-02    0.547E-02
DAV:   4    -0.382161502590E+03   -0.26434E-04   -0.16918E-04  3432   0.224E-02
  11 F= -.38216150E+03 E0= -.38216135E+03  d E =-.420069E-01
 curvature:  -4.18 expect dE=-0.376E-01 dE for cont linesearch -0.118E-04
 trial: gam= 0.72431 g(F)=  0.899E-02 g(S)=  0.000E+00 ort = 0.225E-03 (trialstep = 0.270E+01)
 search vector abs. value=  0.187E-01
 bond charge predicted
       N       E                     dE             d eps       ncg     rms          rms(c)
DAV:   1    -0.382178483849E+03   -0.17008E-01   -0.61111E-01  5078   0.140E+00    0.146E-01
DAV:   2    -0.382178832578E+03   -0.34873E-03   -0.22333E-02  5808   0.267E-01    0.764E-02
DAV:   3    -0.382178738653E+03    0.93925E-04   -0.83731E-04  5832   0.472E-02
  12 F= -.38217874E+03 E0= -.38217881E+03  d E =-.172361E-01
 trial-energy change:   -0.017236  1 .order   -0.017202   -0.024733   -0.009672
 step:   4.4368(harm=  4.4368)  dis= 0.02021  next Energy=  -382.181811 (dE=-0.203E-01)
 bond charge predicted
       N       E                     dE             d eps       ncg     rms          rms(c)
DAV:   1    -0.382181404251E+03   -0.25717E-02   -0.25004E-01  5120   0.899E-01    0.969E-02
DAV:   2    -0.382181686849E+03   -0.28260E-03   -0.88360E-03  5840   0.169E-01    0.535E-02
DAV:   3    -0.382181664580E+03    0.22269E-04   -0.28565E-04  4558   0.289E-02
  13 F= -.38218166E+03 E0= -.38218178E+03  d E =-.201620E-01
 curvature:  -4.54 expect dE=-0.895E-02 dE for cont linesearch -0.104E-04
 trial: gam= 0.28641 g(F)=  0.197E-02 g(S)=  0.000E+00 ort =-0.207E-03 (trialstep = 0.305E+01)
 search vector abs. value=  0.339E-02
 bond charge predicted
       N       E                     dE             d eps       ncg     rms          rms(c)
DAV:   1    -0.382186188421E+03   -0.45016E-02   -0.12987E-01  5076   0.653E-01    0.658E-02
DAV:   2    -0.382186371138E+03   -0.18272E-03   -0.35226E-03  5960   0.108E-01    0.381E-02
DAV:   3    -0.382186361610E+03    0.95279E-05   -0.11895E-04  3304   0.191E-02
  14 F= -.38218636E+03 E0= -.38218647E+03  d E =-.469703E-02
 trial-energy change:   -0.004697  1 .order   -0.004676   -0.005823   -0.003529
 step:   7.7405(harm=  7.7405)  dis= 0.01396  next Energy=  -382.189056 (dE=-0.739E-02)
 bond charge predicted
       N       E                     dE             d eps       ncg     rms          rms(c)
DAV:   1    -0.382188790724E+03   -0.24196E-02   -0.30617E-01  5076   0.100E+00    0.966E-02
DAV:   2    -0.382189257345E+03   -0.46662E-03   -0.81604E-03  5984   0.165E-01    0.560E-02
DAV:   3    -0.382189241972E+03    0.15373E-04   -0.27063E-04  4296   0.283E-02
  15 F= -.38218924E+03 E0= -.38218930E+03  d E =-.757739E-02
 curvature:  -6.87 expect dE=-0.124E-01 dE for cont linesearch -0.342E-05
 trial: gam= 0.79104 g(F)=  0.181E-02 g(S)=  0.000E+00 ort = 0.411E-04 (trialstep = 0.338E+01)
 search vector abs. value=  0.399E-02
 bond charge predicted
       N       E                     dE             d eps       ncg     rms          rms(c)
DAV:   1    -0.382193306009E+03   -0.40487E-02   -0.18265E-01  5076   0.780E-01    0.801E-02
DAV:   2    -0.382193496633E+03   -0.19062E-03   -0.39929E-03  6032   0.117E-01    0.480E-02
DAV:   3    -0.382193478973E+03    0.17660E-04   -0.22843E-04  3798   0.252E-02
  16 F= -.38219348E+03 E0= -.38219355E+03  d E =-.423700E-02
 trial-energy change:   -0.004237  1 .order   -0.004203   -0.006224   -0.002183
 step:   5.2126(harm=  5.2126)  dis= 0.01283  next Energy=  -382.194035 (dE=-0.479E-02)
 bond charge predicted
       N       E                     dE             d eps       ncg     rms          rms(c)
DAV:   1    -0.382194021155E+03   -0.52452E-03   -0.53339E-02  5104   0.422E-01    0.442E-02
DAV:   2    -0.382194094808E+03   -0.73654E-04   -0.11332E-03  6064   0.620E-02    0.270E-02
DAV:   3    -0.382194093096E+03    0.17120E-05   -0.53558E-05  3016   0.127E-02
  17 F= -.38219409E+03 E0= -.38219417E+03  d E =-.485112E-02
 curvature:  -5.66 expect dE=-0.614E-02 dE for cont linesearch -0.266E-06
 trial: gam= 0.62194 g(F)=  0.108E-02 g(S)=  0.000E+00 ort = 0.137E-04 (trialstep = 0.375E+01)
 search vector abs. value=  0.265E-02
 bond charge predicted
       N       E                     dE             d eps       ncg     rms          rms(c)
DAV:   1    -0.382196287367E+03   -0.21926E-02   -0.16202E-01  5060   0.721E-01    0.726E-02
DAV:   2    -0.382196530300E+03   -0.24293E-03   -0.48810E-03  5976   0.127E-01    0.420E-02
DAV:   3    -0.382196500151E+03    0.30149E-04   -0.22814E-04  3958   0.256E-02
  18 F= -.38219650E+03 E0= -.38219656E+03  d E =-.240706E-02
 trial-energy change:   -0.002407  1 .order   -0.002445   -0.004100   -0.000790
 step:   4.6454(harm=  4.6454)  dis= 0.01204  next Energy=  -382.196633 (dE=-0.254E-02)
 reached required accuracy - stopping structural energy minimisation
 writing wavefunctions
* fix calc kpoints:50, xx:1.02, yy:1.06
 running on   32 total cores
 distrk:  each k-point on   32 cores,    1 groups
 distr:  one band on   16 cores,    2 groups
 using from now: INCAR     
 vasp.5.4.4.18Apr17-6-g9f103f2a35 (build Feb 12 2021 11:56:03) complex          
  
 POSCAR found type information on POSCAR  Al
 POSCAR found :  1 types and     104 ions
 scaLAPACK is switched off

 ----------------------------------------------------------------------------- 
|                                                                             |
|           W    W    AA    RRRRR   N    N  II  N    N   GGGG   !!!           |
|           W    W   A  A   R    R  NN   N  II  NN   N  G    G  !!!           |
|           W    W  A    A  R    R  N N  N  II  N N  N  G       !!!           |
|           W WW W  AAAAAA  RRRRR   N  N N  II  N  N N  G  GGG   !            |
|           WW  WW  A    A  R   R   N   NN  II  N   NN  G    G                |
|           W    W  A    A  R    R  N    N  II  N    N   GGGG   !!!           |
|                                                                             |
|      For optimal performance we recommend to set                            |
|        NCORE= 4 - approx SQRT( number of cores)                             |
|      NCORE specifies how many cores store one orbital (NPAR=cpu/NCORE).     |
|      This setting can  greatly improve the performance of VASP for DFT.     |
|      The default,   NCORE=1            might be grossly inefficient         |
|      on modern multi-core architectures or massively parallel machines.     |
|      Do your own testing !!!!                                               |
|      Unfortunately you need to use the default for GW and RPA calculations. |
|      (for HF NCORE is supported but not extensively tested yet)             |
|                                                                             |
 ----------------------------------------------------------------------------- 

 LDA part: xc-table for Pade appr. of Perdew
 generate k-points for:    5    5    3
 found WAVECAR, reading the header
 POSCAR, INCAR and KPOINTS ok, starting setup
 FFT: planning ...
 reading WAVECAR
 the WAVECAR file was read successfully
 initial charge from wavefunction
 entering main loop
       N       E                     dE             d eps       ncg     rms          rms(c)
DAV:   1    -0.382155393554E+03   -0.38216E+03   -0.22496E-04  3716   0.355E-02    0.619E-02
DAV:   2    -0.382155104712E+03    0.28884E-03   -0.11500E-03  4934   0.496E-02    0.298E-02
DAV:   3    -0.382155101701E+03    0.30110E-05   -0.16207E-04  3000   0.202E-02
   1 F= -.38215510E+03 E0= -.38215510E+03  d E =0.000000E+00
 writing wavefunctions
